 Entering Gaussian System, Link 0=g16
 Initial command:
 /sw/cluster/pub/apps//g16/l1.exe "/data/mmaximo/27752/Gau-1916704.inp" -scrdir="/data/mmaximo/27752/"
 Entering Link 1 = /sw/cluster/pub/apps//g16/l1.exe PID=   1916705.
  
 Copyright (c) 1988,1990,1992,1993,1995,1998,2003,2009,2016,
            Gaussian, Inc.  All Rights Reserved.
  
 This is part of the Gaussian(R) 16 program.  It is based on
 the Gaussian(R) 09 system (copyright 2009, Gaussian, Inc.),
 the Gaussian(R) 03 system (copyright 2003, Gaussian, Inc.),
 the Gaussian(R) 98 system (copyright 1998, Gaussian, Inc.),
 the Gaussian(R) 94 system (copyright 1995, Gaussian, Inc.),
 the Gaussian 92(TM) system (copyright 1992, Gaussian, Inc.),
 the Gaussian 90(TM) system (copyright 1990, Gaussian, Inc.),
 the Gaussian 88(TM) system (copyright 1988, Gaussian, Inc.),
 the Gaussian 86(TM) system (copyright 1986, Carnegie Mellon
 University), and the Gaussian 82(TM) system (copyright 1983,
 Carnegie Mellon University). Gaussian is a federally registered
 trademark of Gaussian, Inc.
  
 This software contains proprietary and confidential information,
 including trade secrets, belonging to Gaussian, Inc.
  
 This software is provided under written license and may be
 used, copied, transmitted, or stored only in accord with that
 written license.
  
 The following legend is applicable only to US Government
 contracts under FAR:
  
                    RESTRICTED RIGHTS LEGEND
  
 Use, reproduction and disclosure by the US Government is
 subject to restrictions as set forth in subparagraphs (a)
 and (c) of the Commercial Computer Software - Restricted
 Rights clause in FAR 52.227-19.
  
 Gaussian, Inc.
 340 Quinnipiac St., Bldg. 40, Wallingford CT 06492
  
  
 ---------------------------------------------------------------
 Warning -- This program may not be used in any manner that
 competes with the business of Gaussian, Inc. or will provide
 assistance to any competitor of Gaussian, Inc.  The licensee
 of this program is prohibited from giving any competitor of
 Gaussian, Inc. access to this program.  By using this program,
 the user acknowledges that Gaussian, Inc. is engaged in the
 business of creating and licensing software in the field of
 computational chemistry and represents and warrants to the
 licensee that it is not a competitor of Gaussian, Inc. and that
 it will not use this program in any manner prohibited above.
 ---------------------------------------------------------------
  

 Cite this work as:
 Gaussian 16, Revision A.03,
 M. J. Frisch, G. W. Trucks, H. B. Schlegel, G. E. Scuseria, 
 M. A. Robb, J. R. Cheeseman, G. Scalmani, V. Barone, 
 G. A. Petersson, H. Nakatsuji, X. Li, M. Caricato, A. V. Marenich, 
 J. Bloino, B. G. Janesko, R. Gomperts, B. Mennucci, H. P. Hratchian, 
 J. V. Ortiz, A. F. Izmaylov, J. L. Sonnenberg, D. Williams-Young, 
 F. Ding, F. Lipparini, F. Egidi, J. Goings, B. Peng, A. Petrone, 
 T. Henderson, D. Ranasinghe, V. G. Zakrzewski, J. Gao, N. Rega, 
 G. Zheng, W. Liang, M. Hada, M. Ehara, K. Toyota, R. Fukuda, 
 J. Hasegawa, M. Ishida, T. Nakajima, Y. Honda, O. Kitao, H. Nakai, 
 T. Vreven, K. Throssell, J. A. Montgomery, Jr., J. E. Peralta, 
 F. Ogliaro, M. J. Bearpark, J. J. Heyd, E. N. Brothers, K. N. Kudin, 
 V. N. Staroverov, T. A. Keith, R. Kobayashi, J. Normand, 
 K. Raghavachari, A. P. Rendell, J. C. Burant, S. S. Iyengar, 
 J. Tomasi, M. Cossi, J. M. Millam, M. Klene, C. Adamo, R. Cammi, 
 J. W. Ochterski, R. L. Martin, K. Morokuma, O. Farkas, 
 J. B. Foresman, and D. J. Fox, Gaussian, Inc., Wallingford CT, 2016.
 
 ******************************************
 Gaussian 16:  ES64L-G16RevA.03 25-Dec-2016
                14-Jan-2025 
 ******************************************
 %chk=C6H5O+.chk
 ----------------------------------------
 #P B3LYP/def2tzvp nosymm Density=Current
 ----------------------------------------
 1/30=1,38=1,172=1/1;
 2/12=2,15=1,17=6,18=5,40=1/2;
 3/5=44,7=101,11=2,25=1,30=1,74=-5/1,2,3;
 4//1;
 5/5=2,38=5/2;
 6/7=2,8=2,9=2,10=2,22=-1,28=1/1;
 99/5=1,9=1/99;
 Leave Link    1 at Tue Jan 14 14:04:44 2025, MaxMem=           0 cpu:               0.0 elap:               0.0
 (Enter /sw/cluster/pub/apps//g16/l101.exe)
 ------------
 Single-Point
 ------------
 Symbolic Z-matrix:
 Charge =  1 Multiplicity = 1
 C                     0.       -1.73769   0. 
 C                     1.25414  -1.07345   0. 
 C                     1.28098   0.28273   0. 
 C                     0.        1.04611   0. 
 C                    -1.28098   0.28273   0. 
 C                    -1.25414  -1.07345   0. 
 H                     0.       -2.8233    0. 
 H                     2.16385  -1.65925   0. 
 H                     2.19546   0.86376   0. 
 H                    -2.19546   0.86376   0. 
 H                    -2.16385  -1.65925   0. 
 O                     0.        2.25654   0. 
 
 ITRead=  0  0  0  0  0  0  0  0  0  0  0  0
 MicOpt= -1 -1 -1 -1 -1 -1 -1 -1 -1 -1 -1 -1
 NAtoms=     12 NQM=       12 NQMF=       0 NMMI=      0 NMMIF=      0
                NMic=       0 NMicF=      0.
                    Isotopes and Nuclear Properties:
 (Nuclear quadrupole moments (NQMom) in fm**2, nuclear magnetic moments (NMagM)
  in nuclear magnetons)

  Atom         1           2           3           4           5           6           7           8           9          10
 IAtWgt=          12          12          12          12          12          12           1           1           1           1
 AtmWgt=  12.0000000  12.0000000  12.0000000  12.0000000  12.0000000  12.0000000   1.0078250   1.0078250   1.0078250   1.0078250
 NucSpn=           0           0           0           0           0           0           1           1           1           1
 AtZEff=  -0.0000000  -0.0000000  -0.0000000  -0.0000000  -0.0000000  -0.0000000  -0.0000000  -0.0000000  -0.0000000  -0.0000000
 NQMom=    0.0000000   0.0000000   0.0000000   0.0000000   0.0000000   0.0000000   0.0000000   0.0000000   0.0000000   0.0000000
 NMagM=    0.0000000   0.0000000   0.0000000   0.0000000   0.0000000   0.0000000   2.7928460   2.7928460   2.7928460   2.7928460
 AtZNuc=   6.0000000   6.0000000   6.0000000   6.0000000   6.0000000   6.0000000   1.0000000   1.0000000   1.0000000   1.0000000

  Atom        11          12
 IAtWgt=           1          16
 AtmWgt=   1.0078250  15.9949146
 NucSpn=           1           0
 AtZEff=  -0.0000000  -0.0000000
 NQMom=    0.0000000   0.0000000
 NMagM=    2.7928460   0.0000000
 AtZNuc=   1.0000000   8.0000000
 Leave Link  101 at Tue Jan 14 14:04:45 2025, MaxMem=   104857600 cpu:               0.0 elap:               0.0
 (Enter /sw/cluster/pub/apps//g16/l202.exe)
                          Input orientation:                          
 ---------------------------------------------------------------------
 Center     Atomic      Atomic             Coordinates (Angstroms)
 Number     Number       Type             X           Y           Z
 ---------------------------------------------------------------------
      1          6           0        0.000000   -1.737686    0.000000
      2          6           0        1.254141   -1.073448    0.000000
      3          6           0        1.280985    0.282729    0.000000
      4          6           0        0.000000    1.046111    0.000000
      5          6           0       -1.280985    0.282729    0.000000
      6          6           0       -1.254141   -1.073448    0.000000
      7          1           0        0.000000   -2.823300    0.000000
      8          1           0        2.163849   -1.659249    0.000000
      9          1           0        2.195459    0.863760    0.000000
     10          1           0       -2.195459    0.863760    0.000000
     11          1           0       -2.163849   -1.659249    0.000000
     12          8           0        0.000000    2.256545    0.000000
 ---------------------------------------------------------------------
                    Distance matrix (angstroms):
                    1          2          3          4          5
     1  C    0.000000
     2  C    1.419184   0.000000
     3  C    2.392279   1.356442   0.000000
     4  C    2.783797   2.462804   1.491199   0.000000
     5  C    2.392279   2.875079   2.561969   1.491199   0.000000
     6  C    1.419184   2.508283   2.875079   2.462804   1.356442
     7  H    1.085614   2.152871   3.359812   3.869411   3.359812
     8  H    2.165271   1.082003   2.133243   3.464277   3.954511
     9  H    3.404051   2.153800   1.083449   2.203019   3.524664
    10  H    3.404051   3.956327   3.524664   2.203019   1.083449
    11  H    2.165271   3.467827   3.954511   3.464277   2.133243
    12  O    3.994231   3.558331   2.353056   1.210434   2.353056
                    6          7          8          9         10
     6  C    0.000000
     7  H    2.152871   0.000000
     8  H    3.467827   2.457083   0.000000
     9  H    3.956327   4.291206   2.523207   0.000000
    10  H    2.153800   4.291206   5.036779   4.390919   0.000000
    11  H    1.082003   2.457083   4.327699   5.036779   2.523207
    12  O    3.558331   5.079844   4.473889   2.599979   2.599979
                   11         12
    11  H    0.000000
    12  O    4.473889   0.000000
 Symmetry turned off by external request.
 Stoichiometry    C6H5O(1+)
 Framework group  C2V[C2(HCCO),SGV(C4H4)]
 Deg. of freedom    11
 Full point group                 C2V     NOp   4
 Rotational constants (GHZ):           5.2488206           2.8834694           1.8610765
 Leave Link  202 at Tue Jan 14 14:04:45 2025, MaxMem=   104857600 cpu:               0.0 elap:               0.0
 (Enter /sw/cluster/pub/apps//g16/l301.exe)
 Standard basis: def2TZVP (5D, 7F)
 Ernie: Thresh=  0.10000D-02 Tol=  0.10000D-05 Strict=F.
   247 basis functions,   397 primitive gaussians,   282 cartesian basis functions
    24 alpha electrons       24 beta electrons
       nuclear repulsion energy       260.3485544444 Hartrees.
 IExCor=  402 DFT=T Ex+Corr=B3LYP ExCW=0 ScaHFX=  0.200000
 ScaDFX=  0.800000  0.720000  1.000000  0.810000 ScalE2=  1.000000  1.000000
 IRadAn=      5 IRanWt=     -1 IRanGd=            0 ICorTp=0 IEmpDi=  4
 NAtoms=   12 NActive=   12 NUniq=   12 SFac= 1.00D+00 NAtFMM=   60 NAOKFM=F Big=F
 Integral buffers will be    131072 words long.
 Raffenetti 2 integral format.
 Two-electron integral symmetry is turned off.
 Leave Link  301 at Tue Jan 14 14:04:45 2025, MaxMem=   104857600 cpu:               0.0 elap:               0.0
 (Enter /sw/cluster/pub/apps//g16/l302.exe)
 NPDir=0 NMtPBC=     1 NCelOv=     1 NCel=       1 NClECP=     1 NCelD=      1
         NCelK=      1 NCelE2=     1 NClLst=     1 CellRange=     0.0.
 One-electron integrals computed using PRISM.
   1 Symmetry operations used in ECPInt.
 ECPInt:  NShTT=    4753 NPrTT=   14704 LenC2=    4697 LenP2D=   11992.
 LDataN:  DoStor=T MaxTD1= 6 Len=  172
 NBasis=   247 RedAO= T EigKep=  1.40D-05  NBF=   247
 NBsUse=   247 1.00D-06 EigRej= -1.00D+00 NBFU=   247
 Precomputing XC quadrature grid using
 IXCGrd= 4 IRadAn=           5 IRanWt=          -1 IRanGd=           0 AccXCQ= 0.00D+00.
 Generated NRdTot=       0 NPtTot=           0 NUsed=           0 NTot=          32
 NSgBfM=   281   281   281   281   281 MxSgAt=    12 MxSgA2=    12.
 Leave Link  302 at Tue Jan 14 14:04:45 2025, MaxMem=   104857600 cpu:               0.1 elap:               0.1
 (Enter /sw/cluster/pub/apps//g16/l303.exe)
 DipDrv:  MaxL=1.
 Leave Link  303 at Tue Jan 14 14:04:45 2025, MaxMem=   104857600 cpu:               0.0 elap:               0.0
 (Enter /sw/cluster/pub/apps//g16/l401.exe)
 ExpMin= 9.52D-02 ExpMax= 2.70D+04 ExpMxC= 9.22D+02 IAcc=3 IRadAn=         5 AccDes= 0.00D+00
 Harris functional with IExCor=  402 and IRadAn=       5 diagonalized for initial guess.
 HarFok:  IExCor=  402 AccDes= 0.00D+00 IRadAn=         5 IDoV= 1 UseB2=F ITyADJ=14
 ICtDFT=  3500011 ScaDFX=  1.000000  1.000000  1.000000  1.000000
 FoFCou: FMM=F IPFlag=           0 FMFlag=      100000 FMFlg1=           0
         NFxFlg=           0 DoJE=T BraDBF=F KetDBF=T FulRan=T
         wScrn=  0.000000 ICntrl=       500 IOpCl=  0 I1Cent=   200000004 NGrid=           0
         NMat0=    1 NMatS0=      1 NMatT0=    0 NMatD0=    1 NMtDS0=    0 NMtDT0=    0
 Symmetry not used in FoFCou.
 Harris En= -306.683641770870    
 JPrj=0 DoOrth=F DoCkMO=F.
 Leave Link  401 at Tue Jan 14 14:04:46 2025, MaxMem=   104857600 cpu:               1.7 elap:               1.7
 (Enter /sw/cluster/pub/apps//g16/l502.exe)
 Two-electron integral symmetry not used.
 Closed shell SCF:
 Using DIIS extrapolation, IDIIS=  1040.
 NGot=   104857600 LenX=   104694930 LenY=   104614965
 Requested convergence on RMS density matrix=1.00D-08 within 128 cycles.
 Requested convergence on MAX density matrix=1.00D-06.
 Requested convergence on             energy=1.00D-06.
 No special actions if energy rises.
 Fock matrices will be formed incrementally for  20 cycles.
 Integral accuracy reduced to 1.0D-05 until final iterations.

 Cycle   1  Pass 0  IDiag  1:
 FoFJK:  IHMeth= 1 ICntrl=       0 DoSepK=F KAlg= 0 I1Cent=           0 FoldK=F
 IRaf= 970000000 NMat=       1 IRICut=       1 DoRegI=T DoRafI=F ISym2E= 0 IDoP0=0 IntGTp=1.
 FoFCou: FMM=F IPFlag=           0 FMFlag=      100000 FMFlg1=           0
         NFxFlg=           0 DoJE=F BraDBF=F KetDBF=F FulRan=T
         wScrn=  0.000000 ICntrl=         0 IOpCl=  0 I1Cent=           0 NGrid=           0
         NMat0=    1 NMatS0=      1 NMatT0=    0 NMatD0=    1 NMtDS0=    0 NMtDT0=    0
 Symmetry not used in FoFCou.
 E= -306.526196392054    
 DIIS: error= 2.41D-02 at cycle   1 NSaved=   1.
 NSaved= 1 IEnMin= 1 EnMin= -306.526196392054     IErMin= 1 ErrMin= 2.41D-02
 ErrMax= 2.41D-02  0.00D+00 EMaxC= 1.00D-01 BMatC= 1.34D-01 BMatP= 1.34D-01
 IDIUse=3 WtCom= 7.59D-01 WtEn= 2.41D-01
 Coeff-Com:  0.100D+01
 Coeff-En:   0.100D+01
 Coeff:      0.100D+01
 Gap=     0.031 Goal=   None    Shift=    0.000
 GapD=    0.031 DampG=0.250 DampE=0.500 DampFc=0.2500 IDamp=-1.
 Damping current iteration by 2.50D-01
 RMSDP=4.76D-03 MaxDP=2.13D-01              OVMax= 2.98D-01

 Cycle   2  Pass 0  IDiag  1:
 RMSU=  1.19D-03    CP:  1.00D+00
 E= -306.561608114853     Delta-E=       -0.035411722799 Rises=F Damp=T
 DIIS: error= 1.28D-02 at cycle   2 NSaved=   2.
 NSaved= 2 IEnMin= 2 EnMin= -306.561608114853     IErMin= 2 ErrMin= 1.28D-02
 ErrMax= 1.28D-02  0.00D+00 EMaxC= 1.00D-01 BMatC= 3.32D-02 BMatP= 1.34D-01
 IDIUse=3 WtCom= 8.72D-01 WtEn= 1.28D-01
 Coeff-Com: -0.500D+00 0.150D+01
 Coeff-En:   0.000D+00 0.100D+01
 Coeff:     -0.436D+00 0.144D+01
 Gap=     0.123 Goal=   None    Shift=    0.000
 RMSDP=1.35D-03 MaxDP=4.36D-02 DE=-3.54D-02 OVMax= 2.40D-01

 Cycle   3  Pass 0  IDiag  1:
 RMSU=  1.31D-03    CP:  9.71D-01  8.80D-01
 E= -306.608583472834     Delta-E=       -0.046975357981 Rises=F Damp=F
 DIIS: error= 1.46D-02 at cycle   3 NSaved=   3.
 NSaved= 3 IEnMin= 3 EnMin= -306.608583472834     IErMin= 2 ErrMin= 1.28D-02
 ErrMax= 1.46D-02  0.00D+00 EMaxC= 1.00D-01 BMatC= 2.62D-02 BMatP= 3.32D-02
 IDIUse=3 WtCom= 8.54D-01 WtEn= 1.46D-01
 Coeff-Com: -0.433D+00 0.924D+00 0.509D+00
 Coeff-En:   0.000D+00 0.000D+00 0.100D+01
 Coeff:     -0.370D+00 0.789D+00 0.581D+00
 Gap=     0.125 Goal=   None    Shift=    0.000
 RMSDP=8.54D-04 MaxDP=3.33D-02 DE=-4.70D-02 OVMax= 1.24D-01

 Cycle   4  Pass 0  IDiag  1:
 RMSU=  4.29D-04    CP:  9.83D-01  1.38D+00  6.74D-01
 E= -306.622639782979     Delta-E=       -0.014056310145 Rises=F Damp=F
 DIIS: error= 1.16D-02 at cycle   4 NSaved=   4.
 NSaved= 4 IEnMin= 4 EnMin= -306.622639782979     IErMin= 4 ErrMin= 1.16D-02
 ErrMax= 1.16D-02  0.00D+00 EMaxC= 1.00D-01 BMatC= 1.00D-02 BMatP= 2.62D-02
 IDIUse=3 WtCom= 8.84D-01 WtEn= 1.16D-01
 Coeff-Com: -0.859D-01 0.192D+00 0.389D+00 0.505D+00
 Coeff-En:   0.000D+00 0.000D+00 0.334D+00 0.666D+00
 Coeff:     -0.759D-01 0.170D+00 0.383D+00 0.523D+00
 Gap=     0.102 Goal=   None    Shift=    0.000
 RMSDP=4.73D-04 MaxDP=1.89D-02 DE=-1.41D-02 OVMax= 5.44D-02

 Cycle   5  Pass 0  IDiag  1:
 RMSU=  1.17D-04    CP:  9.77D-01  1.06D+00  8.13D-01  5.92D-01
 E= -306.631485413939     Delta-E=       -0.008845630959 Rises=F Damp=F
 DIIS: error= 2.99D-03 at cycle   5 NSaved=   5.
 NSaved= 5 IEnMin= 5 EnMin= -306.631485413939     IErMin= 5 ErrMin= 2.99D-03
 ErrMax= 2.99D-03  0.00D+00 EMaxC= 1.00D-01 BMatC= 4.16D-04 BMatP= 1.00D-02
 IDIUse=3 WtCom= 9.70D-01 WtEn= 2.99D-02
 Coeff-Com: -0.132D-01 0.334D-01 0.188D+00 0.316D+00 0.476D+00
 Coeff-En:   0.000D+00 0.000D+00 0.000D+00 0.000D+00 0.100D+01
 Coeff:     -0.128D-01 0.324D-01 0.182D+00 0.306D+00 0.492D+00
 Gap=     0.099 Goal=   None    Shift=    0.000
 RMSDP=8.41D-05 MaxDP=2.55D-03 DE=-8.85D-03 OVMax= 1.46D-02

 Cycle   6  Pass 0  IDiag  1:
 RMSU=  4.25D-05    CP:  9.78D-01  1.10D+00  8.09D-01  6.35D-01  5.40D-01
 E= -306.631870626259     Delta-E=       -0.000385212321 Rises=F Damp=F
 DIIS: error= 1.21D-03 at cycle   6 NSaved=   6.
 NSaved= 6 IEnMin= 6 EnMin= -306.631870626259     IErMin= 6 ErrMin= 1.21D-03
 ErrMax= 1.21D-03  0.00D+00 EMaxC= 1.00D-01 BMatC= 7.85D-05 BMatP= 4.16D-04
 IDIUse=3 WtCom= 9.88D-01 WtEn= 1.21D-02
 Coeff-Com:  0.340D-02-0.560D-02 0.599D-01 0.120D+00 0.335D+00 0.488D+00
 Coeff-En:   0.000D+00 0.000D+00 0.000D+00 0.000D+00 0.190D+00 0.810D+00
 Coeff:      0.335D-02-0.554D-02 0.592D-01 0.118D+00 0.333D+00 0.492D+00
 Gap=     0.099 Goal=   None    Shift=    0.000
 RMSDP=2.44D-05 MaxDP=1.09D-03 DE=-3.85D-04 OVMax= 5.29D-03

 Cycle   7  Pass 0  IDiag  1:
 RMSU=  1.21D-05    CP:  9.78D-01  1.09D+00  8.12D-01  6.26D-01  6.19D-01
                    CP:  5.85D-01
 E= -306.631956358786     Delta-E=       -0.000085732526 Rises=F Damp=F
 DIIS: error= 1.51D-04 at cycle   7 NSaved=   7.
 NSaved= 7 IEnMin= 7 EnMin= -306.631956358786     IErMin= 7 ErrMin= 1.51D-04
 ErrMax= 1.51D-04  0.00D+00 EMaxC= 1.00D-01 BMatC= 3.02D-06 BMatP= 7.85D-05
 IDIUse=3 WtCom= 9.98D-01 WtEn= 1.51D-03
 Coeff-Com:  0.237D-02-0.470D-02 0.125D-01 0.301D-01 0.126D+00 0.245D+00
 Coeff-Com:  0.589D+00
 Coeff-En:   0.000D+00 0.000D+00 0.000D+00 0.000D+00 0.000D+00 0.000D+00
 Coeff-En:   0.100D+01
 Coeff:      0.237D-02-0.470D-02 0.125D-01 0.300D-01 0.126D+00 0.245D+00
 Coeff:      0.589D+00
 Gap=     0.099 Goal=   None    Shift=    0.000
 RMSDP=6.07D-06 MaxDP=2.27D-04 DE=-8.57D-05 OVMax= 9.05D-04

 Initial convergence to 1.0D-05 achieved.  Increase integral accuracy.
 Cycle   8  Pass 1  IDiag  1:
 E= -306.631955006332     Delta-E=        0.000001352454 Rises=F Damp=F
 DIIS: error= 7.02D-05 at cycle   1 NSaved=   1.
 NSaved= 1 IEnMin= 1 EnMin= -306.631955006332     IErMin= 1 ErrMin= 7.02D-05
 ErrMax= 7.02D-05  0.00D+00 EMaxC= 1.00D-01 BMatC= 3.44D-07 BMatP= 3.44D-07
 IDIUse=1 WtCom= 1.00D+00 WtEn= 0.00D+00
 Coeff-Com:  0.100D+01
 Coeff:      0.100D+01
 Gap=     0.099 Goal=   None    Shift=    0.000
 RMSDP=6.07D-06 MaxDP=2.27D-04 DE= 1.35D-06 OVMax= 4.77D-04

 Cycle   9  Pass 1  IDiag  1:
 RMSU=  2.11D-05    CP:  1.00D+00
 E= -306.631954877818     Delta-E=        0.000000128514 Rises=F Damp=F
 DIIS: error= 6.42D-05 at cycle   2 NSaved=   2.
 NSaved= 2 IEnMin= 1 EnMin= -306.631955006332     IErMin= 2 ErrMin= 6.42D-05
 ErrMax= 6.42D-05  0.00D+00 EMaxC= 1.00D-01 BMatC= 3.06D-07 BMatP= 3.44D-07
 IDIUse=1 WtCom= 1.00D+00 WtEn= 0.00D+00
 Coeff-Com:  0.481D+00 0.519D+00
 Coeff:      0.481D+00 0.519D+00
 Gap=     0.099 Goal=   None    Shift=    0.000
 RMSDP=2.67D-06 MaxDP=1.01D-04 DE= 1.29D-07 OVMax= 5.83D-04

 Cycle  10  Pass 1  IDiag  1:
 RMSU=  2.61D-06    CP:  1.00D+00  9.80D-01
 E= -306.631955038445     Delta-E=       -0.000000160627 Rises=F Damp=F
 DIIS: error= 5.11D-05 at cycle   3 NSaved=   3.
 NSaved= 3 IEnMin= 3 EnMin= -306.631955038445     IErMin= 3 ErrMin= 5.11D-05
 ErrMax= 5.11D-05  0.00D+00 EMaxC= 1.00D-01 BMatC= 1.59D-07 BMatP= 3.06D-07
 IDIUse=1 WtCom= 1.00D+00 WtEn= 0.00D+00
 Coeff-Com:  0.134D+00 0.398D+00 0.468D+00
 Coeff:      0.134D+00 0.398D+00 0.468D+00
 Gap=     0.099 Goal=   None    Shift=    0.000
 RMSDP=2.02D-06 MaxDP=7.75D-05 DE=-1.61D-07 OVMax= 2.79D-04

 Cycle  11  Pass 1  IDiag  1:
 RMSU=  9.33D-07    CP:  1.00D+00  1.01D+00  3.59D-01
 E= -306.631955185701     Delta-E=       -0.000000147256 Rises=F Damp=F
 DIIS: error= 9.57D-06 at cycle   4 NSaved=   4.
 NSaved= 4 IEnMin= 4 EnMin= -306.631955185701     IErMin= 4 ErrMin= 9.57D-06
 ErrMax= 9.57D-06  0.00D+00 EMaxC= 1.00D-01 BMatC= 1.88D-08 BMatP= 1.59D-07
 IDIUse=1 WtCom= 1.00D+00 WtEn= 0.00D+00
 Coeff-Com:  0.926D-02 0.190D+00 0.312D+00 0.489D+00
 Coeff:      0.926D-02 0.190D+00 0.312D+00 0.489D+00
 Gap=     0.099 Goal=   None    Shift=    0.000
 RMSDP=6.10D-07 MaxDP=2.34D-05 DE=-1.47D-07 OVMax= 4.92D-05

 Cycle  12  Pass 1  IDiag  1:
 RMSU=  1.44D-07    CP:  1.00D+00  1.00D+00  4.95D-01  5.10D-01
 E= -306.631955199992     Delta-E=       -0.000000014291 Rises=F Damp=F
 DIIS: error= 4.21D-06 at cycle   5 NSaved=   5.
 NSaved= 5 IEnMin= 5 EnMin= -306.631955199992     IErMin= 5 ErrMin= 4.21D-06
 ErrMax= 4.21D-06  0.00D+00 EMaxC= 1.00D-01 BMatC= 1.12D-09 BMatP= 1.88D-08
 IDIUse=1 WtCom= 1.00D+00 WtEn= 0.00D+00
 Coeff-Com:  0.222D-03 0.100D+00 0.172D+00 0.307D+00 0.420D+00
 Coeff:      0.222D-03 0.100D+00 0.172D+00 0.307D+00 0.420D+00
 Gap=     0.099 Goal=   None    Shift=    0.000
 RMSDP=1.05D-07 MaxDP=3.24D-06 DE=-1.43D-08 OVMax= 1.57D-05

 Cycle  13  Pass 1  IDiag  1:
 RMSU=  6.00D-08    CP:  1.00D+00  1.00D+00  4.88D-01  5.58D-01  5.40D-01
 E= -306.631955200905     Delta-E=       -0.000000000912 Rises=F Damp=F
 DIIS: error= 1.29D-06 at cycle   6 NSaved=   6.
 NSaved= 6 IEnMin= 6 EnMin= -306.631955200905     IErMin= 6 ErrMin= 1.29D-06
 ErrMax= 1.29D-06  0.00D+00 EMaxC= 1.00D-01 BMatC= 1.04D-10 BMatP= 1.12D-09
 IDIUse=1 WtCom= 1.00D+00 WtEn= 0.00D+00
 Coeff-Com: -0.979D-03 0.432D-01 0.746D-01 0.144D+00 0.273D+00 0.466D+00
 Coeff:     -0.979D-03 0.432D-01 0.746D-01 0.144D+00 0.273D+00 0.466D+00
 Gap=     0.099 Goal=   None    Shift=    0.000
 RMSDP=2.63D-08 MaxDP=8.42D-07 DE=-9.12D-10 OVMax= 4.47D-06

 Cycle  14  Pass 1  IDiag  1:
 RMSU=  1.48D-08    CP:  1.00D+00  1.00D+00  4.87D-01  5.53D-01  5.82D-01
                    CP:  6.63D-01
 E= -306.631955201007     Delta-E=       -0.000000000102 Rises=F Damp=F
 DIIS: error= 1.11D-07 at cycle   7 NSaved=   7.
 NSaved= 7 IEnMin= 7 EnMin= -306.631955201007     IErMin= 7 ErrMin= 1.11D-07
 ErrMax= 1.11D-07  0.00D+00 EMaxC= 1.00D-01 BMatC= 2.23D-12 BMatP= 1.04D-10
 IDIUse=1 WtCom= 1.00D+00 WtEn= 0.00D+00
 Coeff-Com: -0.431D-03 0.143D-01 0.241D-01 0.495D-01 0.106D+00 0.206D+00
 Coeff-Com:  0.600D+00
 Coeff:     -0.431D-03 0.143D-01 0.241D-01 0.495D-01 0.106D+00 0.206D+00
 Coeff:      0.600D+00
 Gap=     0.099 Goal=   None    Shift=    0.000
 RMSDP=5.66D-09 MaxDP=1.57D-07 DE=-1.02D-10 OVMax= 4.05D-07

 SCF Done:  E(RB3LYP) =  -306.631955201     A.U. after   14 cycles
            NFock= 14  Conv=0.57D-08     -V/T= 2.0048
 KE= 3.051543966666D+02 PE=-1.224392941130D+03 EE= 3.522580348177D+02
 Leave Link  502 at Tue Jan 14 14:05:59 2025, MaxMem=   104857600 cpu:              72.7 elap:              73.0
 (Enter /sw/cluster/pub/apps//g16/l601.exe)
 Copying SCF densities to generalized density rwf, IOpCl= 0 IROHF=0.

 **********************************************************************

            Population analysis using the SCF density.

 **********************************************************************

 Alpha  occ. eigenvalues --  -19.36732 -10.48992 -10.46852 -10.43748 -10.43746
 Alpha  occ. eigenvalues --  -10.41743 -10.41742  -1.28288  -1.09353  -1.00161
 Alpha  occ. eigenvalues --   -0.95759  -0.84777  -0.82442  -0.74873  -0.71561
 Alpha  occ. eigenvalues --   -0.69007  -0.66945  -0.65331  -0.64626  -0.60896
 Alpha  occ. eigenvalues --   -0.59836  -0.57148  -0.50633  -0.48921
 Alpha virt. eigenvalues --   -0.38986  -0.23930  -0.22389  -0.13017  -0.09225
 Alpha virt. eigenvalues --   -0.09058  -0.08856  -0.07293  -0.05610  -0.05502
 Alpha virt. eigenvalues --   -0.01897  -0.00652   0.00388   0.01408   0.02905
 Alpha virt. eigenvalues --    0.03393   0.05092   0.05202   0.06288   0.07228
 Alpha virt. eigenvalues --    0.11051   0.12872   0.12891   0.13712   0.14135
 Alpha virt. eigenvalues --    0.16403   0.18666   0.20618   0.22588   0.22780
 Alpha virt. eigenvalues --    0.23189   0.23905   0.24188   0.24214   0.26945
 Alpha virt. eigenvalues --    0.28201   0.29716   0.30314   0.32383   0.32389
 Alpha virt. eigenvalues --    0.39393   0.40157   0.41872   0.42194   0.43995
 Alpha virt. eigenvalues --    0.46436   0.49415   0.54106   0.54802   0.55378
 Alpha virt. eigenvalues --    0.57340   0.57529   0.58406   0.63552   0.64813
 Alpha virt. eigenvalues --    0.65080   0.66737   0.69231   0.77233   0.79486
 Alpha virt. eigenvalues --    0.80727   0.81739   0.83355   0.83781   0.92563
 Alpha virt. eigenvalues --    0.93835   0.94284   0.95338   0.98451   0.98712
 Alpha virt. eigenvalues --    0.99420   1.03831   1.06932   1.08773   1.14914
 Alpha virt. eigenvalues --    1.15149   1.17288   1.19944   1.20962   1.24294
 Alpha virt. eigenvalues --    1.24931   1.28191   1.29459   1.31156   1.34083
 Alpha virt. eigenvalues --    1.39315   1.39340   1.40281   1.40944   1.43252
 Alpha virt. eigenvalues --    1.47729   1.51916   1.52570   1.54591   1.59144
 Alpha virt. eigenvalues --    1.59287   1.67873   1.69471   1.69911   1.80266
 Alpha virt. eigenvalues --    1.80593   1.81448   1.83105   1.83299   1.88035
 Alpha virt. eigenvalues --    1.91475   1.94949   2.00465   2.00861   2.03423
 Alpha virt. eigenvalues --    2.08660   2.15155   2.16407   2.24726   2.25562
 Alpha virt. eigenvalues --    2.28413   2.30024   2.31371   2.34880   2.35183
 Alpha virt. eigenvalues --    2.39128   2.40160   2.41585   2.43367   2.44265
 Alpha virt. eigenvalues --    2.44639   2.46952   2.50913   2.51663   2.51925
 Alpha virt. eigenvalues --    2.54181   2.58437   2.58519   2.58909   2.61571
 Alpha virt. eigenvalues --    2.63793   2.65136   2.68034   2.77678   2.77730
 Alpha virt. eigenvalues --    2.78948   2.81904   2.84871   2.85687   2.86039
 Alpha virt. eigenvalues --    2.86590   2.87478   2.90721   2.93128   2.96667
 Alpha virt. eigenvalues --    2.96841   2.98984   3.03612   3.04469   3.04635
 Alpha virt. eigenvalues --    3.05467   3.06128   3.09811   3.13235   3.17767
 Alpha virt. eigenvalues --    3.18212   3.20279   3.21007   3.22520   3.22752
 Alpha virt. eigenvalues --    3.23117   3.31210   3.35897   3.38422   3.46223
 Alpha virt. eigenvalues --    3.49546   3.50531   3.52405   3.56816   3.66793
 Alpha virt. eigenvalues --    3.71500   3.71949   3.74628   3.75059   3.76617
 Alpha virt. eigenvalues --    3.78038   3.82508   3.87859   3.91946   3.94933
 Alpha virt. eigenvalues --    3.98721   3.99387   4.03891   4.07731   4.17030
 Alpha virt. eigenvalues --    4.27317   4.32843   4.35665   4.37970   4.45075
 Alpha virt. eigenvalues --    4.53701   4.57519   4.59517   4.79145   4.83461
 Alpha virt. eigenvalues --    4.91464   4.96771   4.97195   5.00680   5.07943
 Alpha virt. eigenvalues --    5.35569   5.35924   5.56889   5.87415   6.13479
 Alpha virt. eigenvalues --    6.18492   6.34771   6.40711   6.56409   6.80776
 Alpha virt. eigenvalues --    6.87101  21.74029  22.14175  22.26065  22.41696
 Alpha virt. eigenvalues --   22.61265  23.01887  43.63834
          Condensed to atoms (all electrons):
               1          2          3          4          5          6
     1  C    4.810629   0.402228  -0.011299  -0.029022  -0.011299   0.402228
     2  C    0.402228   4.968284   0.377919   0.012660  -0.015563  -0.003002
     3  C   -0.011299   0.377919   5.095461   0.332851  -0.085297  -0.015563
     4  C   -0.029022   0.012660   0.332851   4.598156   0.332851   0.012660
     5  C   -0.011299  -0.015563  -0.085297   0.332851   5.095461   0.377919
     6  C    0.402228  -0.003002  -0.015563   0.012660   0.377919   4.968284
     7  H    0.407352  -0.030703   0.005222  -0.001180   0.005222  -0.030703
     8  H   -0.030296   0.401753  -0.010556   0.002608  -0.001880   0.004546
     9  H    0.007036  -0.029485   0.402874  -0.029322   0.008846  -0.003356
    10  H    0.007036  -0.003356   0.008846  -0.029322   0.402874  -0.029485
    11  H   -0.030296   0.004546  -0.001880   0.002608  -0.010556   0.401753
    12  O   -0.001840   0.011826  -0.057625   0.539336  -0.057625   0.011826
               7          8          9         10         11         12
     1  C    0.407352  -0.030296   0.007036   0.007036  -0.030296  -0.001840
     2  C   -0.030703   0.401753  -0.029485  -0.003356   0.004546   0.011826
     3  C    0.005222  -0.010556   0.402874   0.008846  -0.001880  -0.057625
     4  C   -0.001180   0.002608  -0.029322  -0.029322   0.002608   0.539336
     5  C    0.005222  -0.001880   0.008846   0.402874  -0.010556  -0.057625
     6  C   -0.030703   0.004546  -0.003356  -0.029485   0.401753   0.011826
     7  H    0.435200  -0.002858  -0.000017  -0.000017  -0.002858  -0.000001
     8  H   -0.002858   0.437559  -0.003683   0.000021  -0.000082  -0.000128
     9  H   -0.000017  -0.003683   0.427307  -0.000010   0.000021   0.005118
    10  H   -0.000017   0.000021  -0.000010   0.427307  -0.003683   0.005118
    11  H   -0.002858  -0.000082   0.000021  -0.003683   0.437559  -0.000128
    12  O   -0.000001  -0.000128   0.005118   0.005118  -0.000128   7.651331
 Mulliken charges:
               1
     1  C    0.077543
     2  C   -0.097108
     3  C   -0.040953
     4  C    0.255114
     5  C   -0.040953
     6  C   -0.097108
     7  H    0.215338
     8  H    0.202995
     9  H    0.214672
    10  H    0.214672
    11  H    0.202995
    12  O   -0.107207
 Sum of Mulliken charges =   1.00000
 Mulliken charges with hydrogens summed into heavy atoms:
               1
     1  C    0.292881
     2  C    0.105887
     3  C    0.173719
     4  C    0.255114
     5  C    0.173719
     6  C    0.105887
    12  O   -0.107207
 Electronic spatial extent (au):  <R**2>=            613.0686
 Charge=              1.0000 electrons
 Dipole moment (field-independent basis, Debye):
    X=              0.0000    Y=             -4.2832    Z=              0.0000  Tot=              4.2832
 Quadrupole moment (field-independent basis, Debye-Ang):
   XX=            -23.8292   YY=            -28.7532   ZZ=            -38.3477
   XY=              0.0000   XZ=              0.0000   YZ=             -0.0000
 Traceless Quadrupole moment (field-independent basis, Debye-Ang):
   XX=              6.4808   YY=              1.5568   ZZ=             -8.0377
   XY=              0.0000   XZ=              0.0000   YZ=             -0.0000
 Octapole moment (field-independent basis, Debye-Ang**2):
  XXX=              0.0000  YYY=            -29.8219  ZZZ=              0.0000  XYY=              0.0000
  XXY=             -1.2926  XXZ=             -0.0000  XZZ=              0.0000  YZZ=              4.3439
  YYZ=              0.0000  XYZ=              0.0000
 Hexadecapole moment (field-independent basis, Debye-Ang**3):
 XXXX=           -222.6888 YYYY=           -400.1266 ZZZZ=            -38.5180 XXXY=             -0.0000
 XXXZ=             -0.0000 YYYX=              0.0000 YYYZ=             -0.0000 ZZZX=              0.0000
 ZZZY=             -0.0000 XXYY=            -98.7472 XXZZ=            -59.3966 YYZZ=            -79.3600
 XXYZ=              0.0000 YYXZ=             -0.0000 ZZXY=             -0.0000
 N-N= 2.603485544444D+02 E-N=-1.224392957168D+03  KE= 3.051543966666D+02
 No NMR shielding tensors so no spin-rotation constants.
 Leave Link  601 at Tue Jan 14 14:06:00 2025, MaxMem=   104857600 cpu:               0.1 elap:               0.1
 (Enter /sw/cluster/pub/apps//g16/l9999.exe)
 1\1\GINC-N02\SP\RB3LYP\def2TZVP\C6H5O1(1+)\UNKNOWN\14-Jan-2025\0\\#P B
 3LYP/def2tzvp nosymm Density=Current\\Single-Point\\1,1\C,0,0.,-1.7376
 8605,0.\C,0,1.25414149,-1.07344801,0.\C,0,1.28098457,0.28272873,0.\C,0
 ,0.,1.0461111,0.\C,0,-1.28098457,0.28272873,0.\C,0,-1.25414149,-1.0734
 4801,0.\H,0,0.,-2.82329964,0.\H,0,2.16384939,-1.65924881,0.\H,0,2.1954
 5929,0.86376005,0.\H,0,-2.19545929,0.86376005,0.\H,0,-2.16384939,-1.65
 924881,0.\O,0,0.,2.25654478,0.\\Version=ES64L-G16RevA.03\HF=-306.63195
 52\RMSD=5.660e-09\Dipole=0.,-1.6851371,0.\Quadrupole=4.8183389,1.15747
 61,-5.975815,0.,0.,0.\PG=C02V [C2(H1C1C1O1),SGV(C4H4)]\\@


 IF MATHEMATICALLY YOU END UP WITH THE INCORRECT ANSWER,
 TRY MULTIPLYING BY THE PAGE NUMBER.
 Job cpu time:       0 days  0 hours  1 minutes 14.7 seconds.
 Elapsed time:       0 days  0 hours  1 minutes 14.9 seconds.
 File lengths (MBytes):  RWF=     38 Int=      0 D2E=      0 Chk=      5 Scr=      1
 Normal termination of Gaussian 16 at Tue Jan 14 14:06:00 2025.
