 Entering Gaussian System, Link 0=g16
 Initial command:
 /sw/cluster/pub/apps//g16/l1.exe "/data/mmaximo/28045/Gau-2499115.inp" -scrdir="/data/mmaximo/28045/"
 Entering Link 1 = /sw/cluster/pub/apps//g16/l1.exe PID=   2499116.
  
 Copyright (c) 1988,1990,1992,1993,1995,1998,2003,2009,2016,
            Gaussian, Inc.  All Rights Reserved.
  
 This is part of the Gaussian(R) 16 program.  It is based on
 the Gaussian(R) 09 system (copyright 2009, Gaussian, Inc.),
 the Gaussian(R) 03 system (copyright 2003, Gaussian, Inc.),
 the Gaussian(R) 98 system (copyright 1998, Gaussian, Inc.),
 the Gaussian(R) 94 system (copyright 1995, Gaussian, Inc.),
 the Gaussian 92(TM) system (copyright 1992, Gaussian, Inc.),
 the Gaussian 90(TM) system (copyright 1990, Gaussian, Inc.),
 the Gaussian 88(TM) system (copyright 1988, Gaussian, Inc.),
 the Gaussian 86(TM) system (copyright 1986, Carnegie Mellon
 University), and the Gaussian 82(TM) system (copyright 1983,
 Carnegie Mellon University). Gaussian is a federally registered
 trademark of Gaussian, Inc.
  
 This software contains proprietary and confidential information,
 including trade secrets, belonging to Gaussian, Inc.
  
 This software is provided under written license and may be
 used, copied, transmitted, or stored only in accord with that
 written license.
  
 The following legend is applicable only to US Government
 contracts under FAR:
  
                    RESTRICTED RIGHTS LEGEND
  
 Use, reproduction and disclosure by the US Government is
 subject to restrictions as set forth in subparagraphs (a)
 and (c) of the Commercial Computer Software - Restricted
 Rights clause in FAR 52.227-19.
  
 Gaussian, Inc.
 340 Quinnipiac St., Bldg. 40, Wallingford CT 06492
  
  
 ---------------------------------------------------------------
 Warning -- This program may not be used in any manner that
 competes with the business of Gaussian, Inc. or will provide
 assistance to any competitor of Gaussian, Inc.  The licensee
 of this program is prohibited from giving any competitor of
 Gaussian, Inc. access to this program.  By using this program,
 the user acknowledges that Gaussian, Inc. is engaged in the
 business of creating and licensing software in the field of
 computational chemistry and represents and warrants to the
 licensee that it is not a competitor of Gaussian, Inc. and that
 it will not use this program in any manner prohibited above.
 ---------------------------------------------------------------
  

 Cite this work as:
 Gaussian 16, Revision A.03,
 M. J. Frisch, G. W. Trucks, H. B. Schlegel, G. E. Scuseria, 
 M. A. Robb, J. R. Cheeseman, G. Scalmani, V. Barone, 
 G. A. Petersson, H. Nakatsuji, X. Li, M. Caricato, A. V. Marenich, 
 J. Bloino, B. G. Janesko, R. Gomperts, B. Mennucci, H. P. Hratchian, 
 J. V. Ortiz, A. F. Izmaylov, J. L. Sonnenberg, D. Williams-Young, 
 F. Ding, F. Lipparini, F. Egidi, J. Goings, B. Peng, A. Petrone, 
 T. Henderson, D. Ranasinghe, V. G. Zakrzewski, J. Gao, N. Rega, 
 G. Zheng, W. Liang, M. Hada, M. Ehara, K. Toyota, R. Fukuda, 
 J. Hasegawa, M. Ishida, T. Nakajima, Y. Honda, O. Kitao, H. Nakai, 
 T. Vreven, K. Throssell, J. A. Montgomery, Jr., J. E. Peralta, 
 F. Ogliaro, M. J. Bearpark, J. J. Heyd, E. N. Brothers, K. N. Kudin, 
 V. N. Staroverov, T. A. Keith, R. Kobayashi, J. Normand, 
 K. Raghavachari, A. P. Rendell, J. C. Burant, S. S. Iyengar, 
 J. Tomasi, M. Cossi, J. M. Millam, M. Klene, C. Adamo, R. Cammi, 
 J. W. Ochterski, R. L. Martin, K. Morokuma, O. Farkas, 
 J. B. Foresman, and D. J. Fox, Gaussian, Inc., Wallingford CT, 2016.
 
 ******************************************
 Gaussian 16:  ES64L-G16RevA.03 25-Dec-2016
                20-Jan-2025 
 ******************************************
 %chk=C6H5CH2-.chk
 -------------------------
 # opt freq b3lyp def2tzvp
 -------------------------
 1/18=20,19=15,26=3,38=1/1,3;
 2/9=110,12=2,17=6,18=5,40=1/2;
 3/5=44,7=101,11=2,25=1,30=1,71=1,74=-5/1,2,3;
 4//1;
 5/5=2,38=5/2;
 6/7=2,8=2,9=2,10=2,28=1/1;
 7//1,2,3,16;
 1/18=20,19=15,26=3/3(2);
 2/9=110/2;
 99//99;
 2/9=110/2;
 3/5=44,7=101,11=2,25=1,30=1,71=1,74=-5/1,2,3;
 4/5=5,16=3,69=1/1;
 5/5=2,38=5/2;
 7//1,2,3,16;
 1/18=20,19=15,26=3/3(-5);
 2/9=110/2;
 6/7=2,8=2,9=2,10=2,19=2,28=1/1;
 99/9=1/99;
 --------
 opt meta
 --------
 Symbolic Z-matrix:
 Charge = -1 Multiplicity = 1
 C                    0     0.03633  -1.7951    0.02199 
 C                    0     1.23735  -1.07391  -0.01483 
 C                    0     1.21406   0.28105  -0.02528 
 C                    0    -0.01106   0.96101   0.00074 
 C                    0    -1.21208   0.23982   0.03757 
 C                    0    -1.18878  -1.11514   0.04801 
 H                    0     0.05472  -2.86491   0.03024 
 H                    0     2.17275  -1.59308  -0.0347 
 H                    0     2.13106   0.83169  -0.0534 
 H                    0    -2.14748   0.75899   0.05744 
 C                    -1   -0.03435   2.31597  -0.00971 
 H                    0     0.88266   2.86661  -0.03782 
 H                    0    -0.96975   2.83514   0.01017 
 C                    0    -2.50858  -1.90765   0.08848 
 O                    0    -3.60868  -1.29708   0.11185 
 O                    0    -2.484    -3.3374    0.09951 
 H                    0    -3.27362  -3.67435  -0.33011 
 

 GradGradGradGradGradGradGradGradGradGradGradGradGradGradGradGradGradGrad
 Berny optimization.
 Initialization pass.
                           ----------------------------
                           !    Initial Parameters    !
                           ! (Angstroms and Degrees)  !
 --------------------------                            --------------------------
 ! Name  Definition              Value          Derivative Info.                !
 --------------------------------------------------------------------------------
 ! X11   R(11,-1)               -0.0344         Frozen                          !
 ! Y11   R(11,-2)                2.316          Frozen                          !
 ! Z11   R(11,-3)               -0.0097         Frozen                          !
 ! R1    R(1,2)                  1.4014         estimate D2E/DX2                !
 ! R2    R(1,6)                  1.4014         estimate D2E/DX2                !
 ! R3    R(1,7)                  1.07           estimate D2E/DX2                !
 ! R4    R(2,3)                  1.3552         estimate D2E/DX2                !
 ! R5    R(2,8)                  1.07           estimate D2E/DX2                !
 ! R6    R(3,4)                  1.4014         estimate D2E/DX2                !
 ! R7    R(3,9)                  1.07           estimate D2E/DX2                !
 ! R8    R(4,5)                  1.4014         estimate D2E/DX2                !
 ! R9    R(4,11)                 1.3552         estimate D2E/DX2                !
 ! R10   R(5,6)                  1.3552         estimate D2E/DX2                !
 ! R11   R(5,10)                 1.07           estimate D2E/DX2                !
 ! R12   R(6,14)                 1.54           estimate D2E/DX2                !
 ! R13   R(11,12)                1.07           estimate D2E/DX2                !
 ! R14   R(11,13)                1.07           estimate D2E/DX2                !
 ! R15   R(14,15)                1.2584         estimate D2E/DX2                !
 ! R16   R(14,16)                1.43           estimate D2E/DX2                !
 ! R17   R(16,17)                0.96           estimate D2E/DX2                !
 ! A1    A(2,1,6)              120.0            estimate D2E/DX2                !
 ! A2    A(2,1,7)              120.0            estimate D2E/DX2                !
 ! A3    A(6,1,7)              120.0            estimate D2E/DX2                !
 ! A4    A(1,2,3)              120.0            estimate D2E/DX2                !
 ! A5    A(1,2,8)              120.0            estimate D2E/DX2                !
 ! A6    A(3,2,8)              120.0            estimate D2E/DX2                !
 ! A7    A(2,3,4)              120.0            estimate D2E/DX2                !
 ! A8    A(2,3,9)              120.0            estimate D2E/DX2                !
 ! A9    A(4,3,9)              120.0            estimate D2E/DX2                !
 ! A10   A(3,4,5)              120.0            estimate D2E/DX2                !
 ! A11   A(3,4,11)             120.0            estimate D2E/DX2                !
 ! A12   A(5,4,11)             120.0            estimate D2E/DX2                !
 ! A13   A(4,5,6)              120.0            estimate D2E/DX2                !
 ! A14   A(4,5,10)             120.0            estimate D2E/DX2                !
 ! A15   A(6,5,10)             120.0            estimate D2E/DX2                !
 ! A16   A(1,6,5)              120.0            estimate D2E/DX2                !
 ! A17   A(1,6,14)             120.0            estimate D2E/DX2                !
 ! A18   A(5,6,14)             120.0            estimate D2E/DX2                !
 ! A19   A(4,11,12)            120.0            estimate D2E/DX2                !
 ! A20   A(4,11,13)            120.0            estimate D2E/DX2                !
 ! A21   A(12,11,13)           120.0            estimate D2E/DX2                !
 ! A22   A(6,14,15)            120.0            estimate D2E/DX2                !
 ! A23   A(6,14,16)            120.0            estimate D2E/DX2                !
 ! A24   A(15,14,16)           120.0            estimate D2E/DX2                !
 ! A25   A(14,16,17)           109.4712         estimate D2E/DX2                !
 ! D1    D(6,1,2,3)              0.0            estimate D2E/DX2                !
 ! D2    D(6,1,2,8)           -179.9999         estimate D2E/DX2                !
 ! D3    D(7,1,2,3)            180.0            estimate D2E/DX2                !
 ! D4    D(7,1,2,8)              0.0001         estimate D2E/DX2                !
 ! D5    D(2,1,6,5)              0.0            estimate D2E/DX2                !
 ! D6    D(2,1,6,14)           180.0            estimate D2E/DX2                !
 ! D7    D(7,1,6,5)            180.0            estimate D2E/DX2                !
 ! D8    D(7,1,6,14)             0.0            estimate D2E/DX2                !
 ! D9    D(1,2,3,4)              0.0            estimate D2E/DX2                !
 ! D10   D(1,2,3,9)            179.9999         estimate D2E/DX2                !
 ! D11   D(8,2,3,4)            180.0            estimate D2E/DX2                !
 ! D12   D(8,2,3,9)             -0.0001         estimate D2E/DX2                !
 ! D13   D(2,3,4,5)             -0.0001         estimate D2E/DX2                !
 ! D14   D(2,3,4,11)           179.9999         estimate D2E/DX2                !
 ! D15   D(9,3,4,5)           -180.0            estimate D2E/DX2                !
 ! D16   D(9,3,4,11)             0.0            estimate D2E/DX2                !
 ! D17   D(3,4,5,6)              0.0            estimate D2E/DX2                !
 ! D18   D(3,4,5,10)          -180.0            estimate D2E/DX2                !
 ! D19   D(11,4,5,6)          -180.0            estimate D2E/DX2                !
 ! D20   D(11,4,5,10)            0.0            estimate D2E/DX2                !
 ! D21   D(3,4,11,12)           -0.0001         estimate D2E/DX2                !
 ! D22   D(3,4,11,13)         -179.9999         estimate D2E/DX2                !
 ! D23   D(5,4,11,12)          179.9999         estimate D2E/DX2                !
 ! D24   D(5,4,11,13)            0.0001         estimate D2E/DX2                !
 ! D25   D(4,5,6,1)              0.0            estimate D2E/DX2                !
 ! D26   D(4,5,6,14)           180.0            estimate D2E/DX2                !
 ! D27   D(10,5,6,1)          -180.0            estimate D2E/DX2                !
 ! D28   D(10,5,6,14)            0.0            estimate D2E/DX2                !
 ! D29   D(1,6,14,15)         -179.9999         estimate D2E/DX2                !
 ! D30   D(1,6,14,16)            0.0001         estimate D2E/DX2                !
 ! D31   D(5,6,14,15)            0.0001         estimate D2E/DX2                !
 ! D32   D(5,6,14,16)         -179.9999         estimate D2E/DX2                !
 ! D33   D(6,14,16,17)        -150.0            estimate D2E/DX2                !
 ! D34   D(15,14,16,17)         30.0            estimate D2E/DX2                !
 --------------------------------------------------------------------------------
 Trust Radius=3.00D-01 FncErr=1.00D-07 GrdErr=1.00D-06 EigMax=2.50D+02 EigMin=1.00D-04
 Number of steps in this run=     89 maximum allowed number of steps=    102.
 GradGradGradGradGradGradGradGradGradGradGradGradGradGradGradGradGradGrad

                          Input orientation:                          
 ---------------------------------------------------------------------
 Center     Atomic      Atomic             Coordinates (Angstroms)
 Number     Number       Type             X           Y           Z
 ---------------------------------------------------------------------
      1          6           0        0.036330   -1.795099    0.021993
      2          6           0        1.237351   -1.073910   -0.014833
      3          6           0        1.214055    0.281049   -0.025281
      4          6           0       -0.011056    0.961011    0.000741
      5          6           0       -1.212077    0.239822    0.037567
      6          6           0       -1.188781   -1.115137    0.048014
      7          1           0        0.054723   -2.864909    0.030241
      8          1           0        2.172750   -1.593076   -0.034703
      9          1           0        2.131062    0.831694   -0.053398
     10          1           0       -2.147476    0.758988    0.057436
     11          6           0       -0.034351    2.315971   -0.009705
     12          1           0        0.882655    2.866615   -0.037820
     13          1           0       -0.969750    2.835137    0.010165
     14          6           0       -2.508585   -1.907653    0.088482
     15          8           0       -3.608684   -1.297075    0.111847
     16          8           0       -2.484003   -3.337399    0.099508
     17          1           0       -3.273619   -3.674345   -0.330113
 ---------------------------------------------------------------------
                    Distance matrix (angstroms):
                    1          2          3          4          5
     1  C    0.000000
     2  C    1.401400   0.000000
     3  C    2.387397   1.355200   0.000000
     4  C    2.756600   2.387397   1.401400   0.000000
     5  C    2.387397   2.779988   2.427296   1.401400   0.000000
     6  C    1.401400   2.427296   2.779988   2.387397   1.355200
     7  H    1.070000   2.146700   3.353236   3.826600   3.353236
     8  H    2.146700   1.070000   2.105120   3.360599   3.849908
     9  H    3.360599   2.105120   1.070000   2.146700   3.396345
    10  H    3.360599   3.849908   3.396345   2.146700   1.070000
    11  C    4.111800   3.620572   2.387397   1.355200   2.387397
    12  H    4.738293   3.956523   2.606747   2.105120   3.360599
    13  H    4.738293   4.489161   3.360599   2.105120   2.606747
    14  C    2.548270   3.838989   4.319885   3.804548   2.509019
    15  O    3.679977   4.852825   5.076229   4.249027   2.848034
    16  O    2.955804   4.357170   5.175363   4.959996   3.797124
    17  H    3.822474   5.216370   5.989765   5.678056   4.439127
                    6          7          8          9         10
     6  C    0.000000
     7  H    2.146700   0.000000
     8  H    3.396345   2.471400   0.000000
     9  H    3.849908   4.240643   2.425200   0.000000
    10  H    2.105120   4.240643   4.919863   4.280590   0.000000
    11  C    3.620572   5.181800   4.489161   2.625643   2.625643
    12  H    4.489161   5.791414   4.642542   2.387397   3.692270
    13  H    3.956523   5.791414   5.430137   3.692270   2.387397
    14  C    1.540000   2.736837   4.693509   5.389848   2.691159
    15  O    2.427572   3.985638   5.790861   6.124022   2.522991
    16  O    2.572683   2.583249   4.974538   6.221217   4.110403
    17  H    3.322510   3.444256   5.837969   7.042125   4.590516
                   11         12         13         14         15
    11  C    0.000000
    12  H    1.070000   0.000000
    13  H    1.070000   1.853294   0.000000
    14  C    4.895965   5.857482   4.986803   0.000000
    15  O    5.083772   6.126242   4.904028   1.258400   0.000000
    16  O    6.162249   7.059961   6.356190   1.430000   2.329803
    17  H    6.817581   7.755270   6.913534   1.970203   2.441108
                   16         17
    16  O    0.000000
    17  H    0.960000   0.000000
 Stoichiometry    C8H7O2(1-)
 Framework group  C1[X(C8H7O2)]
 Deg. of freedom    45
 Full point group                 C1      NOp   1
 Largest Abelian subgroup         C1      NOp   1
 Largest concise Abelian subgroup C1      NOp   1
                         Standard orientation:                         
 ---------------------------------------------------------------------
 Center     Atomic      Atomic             Coordinates (Angstroms)
 Number     Number       Type             X           Y           Z
 ---------------------------------------------------------------------
      1          6           0       -0.128700    1.434061   -0.009284
      2          6           0        1.222976    1.803982   -0.001966
      3          6           0        2.186318    0.850835    0.005083
      4          6           0        1.830826   -0.504726    0.005053
      5          6           0        0.479150   -0.874647   -0.002265
      6          6           0       -0.484192    0.078500   -0.009313
      7          1           0       -0.889308    2.186620   -0.014850
      8          1           0        1.494402    2.838984   -0.001942
      9          1           0        3.218352    1.133278    0.010670
     10          1           0        0.207724   -1.909649   -0.002287
     11          6           0        2.794168   -1.457873    0.012101
     12          1           0        3.826203   -1.175430    0.017687
     13          1           0        2.522742   -2.492874    0.012077
     14          6           0       -1.969550   -0.328007   -0.017355
     15          8           0       -2.288767   -1.545246   -0.017380
     16          8           0       -2.986063    0.677749   -0.024795
     17          1           0       -3.767460    0.346292    0.423708
 ---------------------------------------------------------------------
 Rotational constants (GHZ):           2.7642360           0.9411997           0.7025192
 Standard basis: def2TZVP (5D, 7F)
 There are   402 symmetry adapted cartesian basis functions of A   symmetry.
 There are   352 symmetry adapted basis functions of A   symmetry.
   352 basis functions,   566 primitive gaussians,   402 cartesian basis functions
    36 alpha electrons       36 beta electrons
       nuclear repulsion energy       474.0112532270 Hartrees.
 NAtoms=   17 NActive=   17 NUniq=   17 SFac= 1.00D+00 NAtFMM=   60 NAOKFM=F Big=F
 Integral buffers will be    131072 words long.
 Raffenetti 2 integral format.
 Two-electron integral symmetry is turned on.
 One-electron integrals computed using PRISM.
   1 Symmetry operations used in ECPInt.
 ECPInt:  NShTT=    9591 NPrTT=   29644 LenC2=    9182 LenP2D=   22122.
 LDataN:  DoStor=T MaxTD1= 6 Len=  172
 NBasis=   352 RedAO= T EigKep=  7.48D-06  NBF=   352
 NBsUse=   352 1.00D-06 EigRej= -1.00D+00 NBFU=   352
 ExpMin= 9.52D-02 ExpMax= 2.70D+04 ExpMxC= 9.22D+02 IAcc=3 IRadAn=         5 AccDes= 0.00D+00
 Harris functional with IExCor=  402 and IRadAn=       5 diagonalized for initial guess.
 HarFok:  IExCor=  402 AccDes= 0.00D+00 IRadAn=         5 IDoV= 1 UseB2=F ITyADJ=14
 ICtDFT=  3500011 ScaDFX=  1.000000  1.000000  1.000000  1.000000
 FoFCou: FMM=F IPFlag=           0 FMFlag=      100000 FMFlg1=           0
         NFxFlg=           0 DoJE=T BraDBF=F KetDBF=T FulRan=T
         wScrn=  0.000000 ICntrl=       500 IOpCl=  0 I1Cent=   200000004 NGrid=           0
         NMat0=    1 NMatS0=      1 NMatT0=    0 NMatD0=    1 NMtDS0=    0 NMtDT0=    0
 Petite list used in FoFCou.
 Requested convergence on RMS density matrix=1.00D-08 within 128 cycles.
 Requested convergence on MAX density matrix=1.00D-06.
 Requested convergence on             energy=1.00D-06.
 No special actions if energy rises.
 Integral accuracy reduced to 1.0D-05 until final iterations.
 EnCoef did     6 forward-backward iterations
 Initial convergence to 1.0D-05 achieved.  Increase integral accuracy.
 SCF Done:  E(RB3LYP) =  -459.689174031     A.U. after   20 cycles
            NFock= 20  Conv=0.36D-08     -V/T= 2.0043

 **********************************************************************

            Population analysis using the SCF density.

 **********************************************************************

 Orbital symmetries:
       Occupied  (A) (A) (A) (A) (A) (A) (A) (A) (A) (A) (A) (A)
                 (A) (A) (A) (A) (A) (A) (A) (A) (A) (A) (A) (A)
                 (A) (A) (A) (A) (A) (A) (A) (A) (A) (A) (A) (A)
       Virtual   (A) (A) (A) (A) (A) (A) (A) (A) (A) (A) (A) (A)
                 (A) (A) (A) (A) (A) (A) (A) (A) (A) (A) (A) (A)
                 (A) (A) (A) (A) (A) (A) (A) (A) (A) (A) (A) (A)
                 (A) (A) (A) (A) (A) (A) (A) (A) (A) (A) (A) (A)
                 (A) (A) (A) (A) (A) (A) (A) (A) (A) (A) (A) (A)
                 (A) (A) (A) (A) (A) (A) (A) (A) (A) (A) (A) (A)
                 (A) (A) (A) (A) (A) (A) (A) (A) (A) (A) (A) (A)
                 (A) (A) (A) (A) (A) (A) (A) (A) (A) (A) (A) (A)
                 (A) (A) (A) (A) (A) (A) (A) (A) (A) (A) (A) (A)
                 (A) (A) (A) (A) (A) (A) (A) (A) (A) (A) (A) (A)
                 (A) (A) (A) (A) (A) (A) (A) (A) (A) (A) (A) (A)
                 (A) (A) (A) (A) (A) (A) (A) (A) (A) (A) (A) (A)
                 (A) (A) (A) (A) (A) (A) (A) (A) (A) (A) (A) (A)
                 (A) (A) (A) (A) (A) (A) (A) (A) (A) (A) (A) (A)
                 (A) (A) (A) (A) (A) (A) (A) (A) (A) (A) (A) (A)
                 (A) (A) (A) (A) (A) (A) (A) (A) (A) (A) (A) (A)
                 (A) (A) (A) (A) (A) (A) (A) (A) (A) (A) (A) (A)
                 (A) (A) (A) (A) (A) (A) (A) (A) (A) (A) (A) (A)
                 (A) (A) (A) (A) (A) (A) (A) (A) (A) (A) (A) (A)
                 (A) (A) (A) (A) (A) (A) (A) (A) (A) (A) (A) (A)
                 (A) (A) (A) (A) (A) (A) (A) (A) (A) (A) (A) (A)
                 (A) (A) (A) (A) (A) (A) (A) (A) (A) (A) (A) (A)
                 (A) (A) (A) (A) (A) (A) (A) (A) (A) (A) (A) (A)
                 (A) (A) (A) (A) (A) (A) (A) (A) (A) (A) (A) (A)
                 (A) (A) (A) (A) (A) (A) (A) (A) (A) (A) (A) (A)
                 (A) (A) (A) (A) (A) (A) (A) (A) (A) (A) (A) (A)
                 (A) (A) (A) (A)
 The electronic state is 1-A.
 Alpha  occ. eigenvalues --  -19.04276 -18.98291 -10.18165 -10.02985 -10.00561
 Alpha  occ. eigenvalues --   -9.99258  -9.98928  -9.98720  -9.98688  -9.93757
 Alpha  occ. eigenvalues --   -0.94756  -0.86674  -0.69636  -0.60807  -0.59263
 Alpha  occ. eigenvalues --   -0.50914  -0.48692  -0.43234  -0.41878  -0.35142
 Alpha  occ. eigenvalues --   -0.34647  -0.31706  -0.30703  -0.29405  -0.28135
 Alpha  occ. eigenvalues --   -0.25832  -0.23357  -0.21235  -0.20858  -0.19458
 Alpha  occ. eigenvalues --   -0.18677  -0.17404  -0.14404  -0.11265  -0.10243
 Alpha  occ. eigenvalues --    0.02867
 Alpha virt. eigenvalues --    0.09227   0.13825   0.17580   0.19274   0.20990
 Alpha virt. eigenvalues --    0.22016   0.22749   0.24640   0.25502   0.27008
 Alpha virt. eigenvalues --    0.28665   0.29579   0.30129   0.31333   0.33617
 Alpha virt. eigenvalues --    0.34706   0.35159   0.36133   0.36781   0.37512
 Alpha virt. eigenvalues --    0.39146   0.41101   0.41464   0.41979   0.42576
 Alpha virt. eigenvalues --    0.44272   0.45732   0.45948   0.47023   0.48114
 Alpha virt. eigenvalues --    0.48246   0.48823   0.50530   0.51571   0.52839
 Alpha virt. eigenvalues --    0.54645   0.54810   0.55962   0.56933   0.57937
 Alpha virt. eigenvalues --    0.58949   0.59218   0.60351   0.60501   0.61338
 Alpha virt. eigenvalues --    0.63371   0.64484   0.65703   0.67145   0.68565
 Alpha virt. eigenvalues --    0.68730   0.70089   0.71271   0.73421   0.74572
 Alpha virt. eigenvalues --    0.75672   0.77114   0.78802   0.79473   0.81670
 Alpha virt. eigenvalues --    0.84053   0.84520   0.85026   0.87460   0.89337
 Alpha virt. eigenvalues --    0.89525   0.90541   0.91364   0.92088   0.92588
 Alpha virt. eigenvalues --    0.96013   0.97923   0.99282   1.00983   1.01929
 Alpha virt. eigenvalues --    1.02364   1.05467   1.08095   1.08969   1.10795
 Alpha virt. eigenvalues --    1.12315   1.13101   1.15139   1.16608   1.19548
 Alpha virt. eigenvalues --    1.20586   1.24710   1.24882   1.28935   1.32101
 Alpha virt. eigenvalues --    1.33254   1.35168   1.36696   1.39574   1.40781
 Alpha virt. eigenvalues --    1.42281   1.43586   1.44454   1.44837   1.45677
 Alpha virt. eigenvalues --    1.48323   1.50240   1.53553   1.54295   1.56004
 Alpha virt. eigenvalues --    1.59130   1.59741   1.62297   1.63553   1.66367
 Alpha virt. eigenvalues --    1.66870   1.68199   1.70059   1.72069   1.74459
 Alpha virt. eigenvalues --    1.76400   1.78166   1.78642   1.78835   1.81138
 Alpha virt. eigenvalues --    1.81441   1.84319   1.85096   1.86408   1.87800
 Alpha virt. eigenvalues --    1.89198   1.91330   1.96766   1.98863   2.02010
 Alpha virt. eigenvalues --    2.02814   2.03588   2.04105   2.07174   2.08579
 Alpha virt. eigenvalues --    2.10690   2.12253   2.16057   2.16553   2.17357
 Alpha virt. eigenvalues --    2.19339   2.22671   2.25748   2.26236   2.28501
 Alpha virt. eigenvalues --    2.29912   2.31760   2.33359   2.35202   2.37366
 Alpha virt. eigenvalues --    2.38315   2.41960   2.42905   2.46342   2.52165
 Alpha virt. eigenvalues --    2.54625   2.56558   2.57824   2.58748   2.61564
 Alpha virt. eigenvalues --    2.66080   2.67750   2.71972   2.73067   2.74106
 Alpha virt. eigenvalues --    2.76530   2.77843   2.79289   2.80002   2.81792
 Alpha virt. eigenvalues --    2.84684   2.85488   2.88514   2.89050   2.89955
 Alpha virt. eigenvalues --    2.90847   2.90981   2.92850   2.94350   2.94730
 Alpha virt. eigenvalues --    2.97575   2.99402   3.00417   3.01971   3.02703
 Alpha virt. eigenvalues --    3.03937   3.06337   3.08588   3.10120   3.11284
 Alpha virt. eigenvalues --    3.13328   3.15563   3.16943   3.17757   3.18601
 Alpha virt. eigenvalues --    3.22310   3.22597   3.24367   3.26839   3.27633
 Alpha virt. eigenvalues --    3.29798   3.31922   3.32950   3.33865   3.34762
 Alpha virt. eigenvalues --    3.35835   3.37010   3.38034   3.39318   3.40365
 Alpha virt. eigenvalues --    3.41274   3.42414   3.43484   3.44037   3.47383
 Alpha virt. eigenvalues --    3.48028   3.49648   3.50871   3.53212   3.54582
 Alpha virt. eigenvalues --    3.55984   3.56383   3.57507   3.58621   3.61871
 Alpha virt. eigenvalues --    3.63344   3.64554   3.65655   3.69455   3.72502
 Alpha virt. eigenvalues --    3.76219   3.77920   3.78613   3.83441   3.84899
 Alpha virt. eigenvalues --    3.85668   3.87586   3.93150   3.95731   3.98191
 Alpha virt. eigenvalues --    4.00513   4.02565   4.07134   4.08372   4.10372
 Alpha virt. eigenvalues --    4.14372   4.18864   4.25044   4.27600   4.28367
 Alpha virt. eigenvalues --    4.33270   4.33534   4.37220   4.39068   4.41078
 Alpha virt. eigenvalues --    4.42226   4.42689   4.46283   4.50238   4.57310
 Alpha virt. eigenvalues --    4.58848   4.64033   4.64399   4.66992   4.74627
 Alpha virt. eigenvalues --    4.81622   4.85354   4.87997   4.89610   4.95476
 Alpha virt. eigenvalues --    5.00883   5.02101   5.12067   5.14945   5.23712
 Alpha virt. eigenvalues --    5.28028   5.30729   5.34951   5.37983   5.40267
 Alpha virt. eigenvalues --    5.45078   5.48408   5.52559   5.56352   5.60708
 Alpha virt. eigenvalues --    5.61568   5.65264   5.69533   5.79597   5.86827
 Alpha virt. eigenvalues --    5.89928   6.01624   6.12872   6.34632   6.37887
 Alpha virt. eigenvalues --    6.46068   6.55526   6.61631   6.72705   6.76457
 Alpha virt. eigenvalues --    6.88541   6.95431   7.06454   7.13377   7.22747
 Alpha virt. eigenvalues --    7.34081  22.21922  22.75048  22.81194  22.94316
 Alpha virt. eigenvalues --   23.04892  23.06139  23.26186  23.56205  43.85719
 Alpha virt. eigenvalues --   43.96884
          Condensed to atoms (all electrons):
               1          2          3          4          5          6
     1  C    5.439623   0.347734   0.012107  -0.089333  -0.117843   0.308327
     2  C    0.347734   4.993927   0.451474   0.008183  -0.028840   0.005104
     3  C    0.012107   0.451474   5.277778   0.382867  -0.021264  -0.067070
     4  C   -0.089333   0.008183   0.382867   4.710172   0.291192   0.059806
     5  C   -0.117843  -0.028840  -0.021264   0.291192   5.677266   0.282189
     6  C    0.308327   0.005104  -0.067070   0.059806   0.282189   5.762054
     7  H    0.447897  -0.082230   0.011605  -0.000501   0.009716  -0.051947
     8  H   -0.089300   0.446223  -0.086010   0.018670  -0.002309   0.016171
     9  H    0.014237  -0.088504   0.439249  -0.060966   0.015897  -0.002200
    10  H    0.009180   0.000116   0.010313  -0.078712   0.458509  -0.071594
    11  C    0.010076   0.015010  -0.175686   0.515979  -0.138557   0.004410
    12  H   -0.000025   0.000618  -0.019407  -0.048257   0.019168  -0.002633
    13  H    0.000359  -0.001498   0.014350  -0.040702  -0.022529   0.002787
    14  C    0.003232  -0.025335   0.019850  -0.009037  -0.091762   0.013303
    15  O    0.006952  -0.000771   0.000895  -0.004444   0.026211  -0.232502
    16  O    0.026743  -0.003533   0.000844  -0.000502   0.005009  -0.175137
    17  H   -0.005286   0.000141  -0.000051   0.000142  -0.001006   0.030297
               7          8          9         10         11         12
     1  C    0.447897  -0.089300   0.014237   0.009180   0.010076  -0.000025
     2  C   -0.082230   0.446223  -0.088504   0.000116   0.015010   0.000618
     3  C    0.011605  -0.086010   0.439249   0.010313  -0.175686  -0.019407
     4  C   -0.000501   0.018670  -0.060966  -0.078712   0.515979  -0.048257
     5  C    0.009716  -0.002309   0.015897   0.458509  -0.138557   0.019168
     6  C   -0.051947   0.016171  -0.002200  -0.071594   0.004410  -0.002633
     7  H    0.628637  -0.011583  -0.000588  -0.000653   0.000299  -0.000007
     8  H   -0.011583   0.691814  -0.015587   0.000220  -0.001052  -0.000112
     9  H   -0.000588  -0.015587   0.677857  -0.000434  -0.016537   0.010901
    10  H   -0.000653   0.000220  -0.000434   0.598371  -0.010918  -0.000078
    11  C    0.000299  -0.001052  -0.016537  -0.010918   5.517801   0.396186
    12  H   -0.000007  -0.000112   0.010901  -0.000078   0.396186   0.678486
    13  H   -0.000003   0.000061  -0.000386   0.007691   0.401688  -0.055724
    14  C   -0.018073  -0.001009   0.000478  -0.011747  -0.007332   0.000059
    15  O    0.000211   0.000010   0.000002   0.025233  -0.000945   0.000001
    16  O    0.010956  -0.000128   0.000001   0.001173  -0.000030  -0.000000
    17  H   -0.000845  -0.000004   0.000000  -0.000219   0.000005   0.000000
              13         14         15         16         17
     1  C    0.000359   0.003232   0.006952   0.026743  -0.005286
     2  C   -0.001498  -0.025335  -0.000771  -0.003533   0.000141
     3  C    0.014350   0.019850   0.000895   0.000844  -0.000051
     4  C   -0.040702  -0.009037  -0.004444  -0.000502   0.000142
     5  C   -0.022529  -0.091762   0.026211   0.005009  -0.001006
     6  C    0.002787   0.013303  -0.232502  -0.175137   0.030297
     7  H   -0.000003  -0.018073   0.000211   0.010956  -0.000845
     8  H    0.000061  -0.001009   0.000010  -0.000128  -0.000004
     9  H   -0.000386   0.000478   0.000002   0.000001   0.000000
    10  H    0.007691  -0.011747   0.025233   0.001173  -0.000219
    11  C    0.401688  -0.007332  -0.000945  -0.000030   0.000005
    12  H   -0.055724   0.000059   0.000001  -0.000000   0.000000
    13  H    0.665983  -0.000149  -0.000066   0.000000  -0.000000
    14  C   -0.000149   4.729553   0.717377   0.411250  -0.035449
    15  O   -0.000066   0.717377   7.937960  -0.094003   0.006124
    16  O    0.000000   0.411250  -0.094003   7.963208   0.268714
    17  H   -0.000000  -0.035449   0.006124   0.268714   0.447852
 Mulliken charges:
               1
     1  C   -0.324680
     2  C   -0.037818
     3  C   -0.251843
     4  C    0.345444
     5  C   -0.361046
     6  C    0.118637
     7  H    0.057109
     8  H    0.033927
     9  H    0.026581
    10  H    0.063549
    11  C   -0.510398
    12  H    0.020827
    13  H    0.028142
    14  C    0.304792
    15  O   -0.388246
    16  O   -0.414564
    17  H    0.289586
 Sum of Mulliken charges =  -1.00000
 Mulliken charges with hydrogens summed into heavy atoms:
               1
     1  C   -0.267571
     2  C   -0.003891
     3  C   -0.225262
     4  C    0.345444
     5  C   -0.297497
     6  C    0.118637
    11  C   -0.461429
    14  C    0.304792
    15  O   -0.388246
    16  O   -0.124978
 Electronic spatial extent (au):  <R**2>=           1582.0536
 Charge=             -1.0000 electrons
 Dipole moment (field-independent basis, Debye):
    X=             -4.2243    Y=              2.7100    Z=              0.6852  Tot=              5.0654
 Quadrupole moment (field-independent basis, Debye-Ang):
   XX=            -80.8969   YY=            -74.6467   ZZ=            -66.2193
   XY=              3.2441   XZ=             -3.1018   YZ=              0.2526
 Traceless Quadrupole moment (field-independent basis, Debye-Ang):
   XX=             -6.9759   YY=             -0.7257   ZZ=              7.7017
   XY=              3.2441   XZ=             -3.1018   YZ=              0.2526
 Octapole moment (field-independent basis, Debye-Ang**2):
  XXX=            -94.9982  YYY=              9.6766  ZZZ=              0.2397  XYY=             -9.6548
  XXY=             35.7873  XXZ=             12.2320  XZZ=            -22.1269  YZZ=             -0.2853
  YYZ=             -0.0409  XYZ=             -0.8995
 Hexadecapole moment (field-independent basis, Debye-Ang**3):
 XXXX=          -1529.5219 YYYY=           -630.8429 ZZZZ=            -81.2039 XXXY=             61.6671
 XXXZ=            -49.9266 YYYX=             18.7980 YYYZ=              0.2189 ZZZX=             -2.3501
 ZZZY=              0.5478 XXYY=           -442.6679 XXZZ=           -286.6863 YYZZ=           -129.3037
 XXYZ=              4.6353 YYXZ=             -0.7557 ZZXY=             13.2218
 N-N= 4.740112532270D+02 E-N=-2.033382219768D+03  KE= 4.577213340801D+02
   1 Symmetry operations used in ECPInt.
 ECPInt:  NShTT=    9591 NPrTT=   29644 LenC2=    9182 LenP2D=   22122.
 LDataN:  DoStor=T MaxTD1= 7 Len=  274
 Calling FoFJK, ICntrl=      2127 FMM=F ISym2X=0 I1Cent= 0 IOpClX= 0 NMat=1 NMatS=1 NMatT=0.
 ***** Axes restored to original set *****
 -------------------------------------------------------------------
 Center     Atomic                   Forces (Hartrees/Bohr)
 Number     Number              X              Y              Z
 -------------------------------------------------------------------
      1        6           0.007105844   -0.018554200   -0.000198617
      2        6          -0.012179008   -0.009302141    0.000383222
      3        6           0.012459018   -0.017879711   -0.000106304
      4        6          -0.001648526    0.031707303   -0.000569636
      5        6          -0.016618757   -0.007121355    0.001025457
      6        6          -0.018322405   -0.051719945    0.003325292
      7        1          -0.000681535   -0.008283772   -0.000047155
      8        1           0.009263379   -0.007259292   -0.000166026
      9        1           0.007621034    0.007484936   -0.000258663
     10        1          -0.006595375    0.004633539    0.000273118
     11        6          -0.000000000   -0.000000000    0.000000000
     12        1           0.005907706    0.008720299   -0.000204086
     13        1          -0.005918546    0.008604175    0.000102424
     14        6          -0.039935722    0.038414945   -0.000227238
     15        8           0.049722626   -0.044812668   -0.004372794
     16        8           0.021537959    0.035324638   -0.001286749
     17        1          -0.009851044    0.006947603    0.002557600
 -------------------------------------------------------------------
 Cartesian Forces:  Max     0.051719945 RMS     0.017436247

 GradGradGradGradGradGradGradGradGradGradGradGradGradGradGradGradGradGrad
 Berny optimization.
 FormGI is forming the generalized inverse of G from B-inverse, IUseBI=4.
 Internal  Forces:  Max     0.065291892 RMS     0.015222410
 Search for a local minimum.
 Step number   1 out of a maximum of   89
 All quantities printed in internal units (Hartrees-Bohrs-Radians)
 Mixed Optimization -- RFO/linear search
 Second derivative matrix not updated -- first step.
 ITU=  0
     Eigenvalues ---    0.00237   0.00590   0.01295   0.01701   0.02070
     Eigenvalues ---    0.02070   0.02204   0.02292   0.02330   0.02376
     Eigenvalues ---    0.02468   0.02473   0.02681   0.02681   0.16000
     Eigenvalues ---    0.16000   0.16000   0.16000   0.16000   0.16000
     Eigenvalues ---    0.16000   0.22000   0.23472   0.23494   0.25000
     Eigenvalues ---    0.25000   0.25000   0.25000   0.28519   0.37230
     Eigenvalues ---    0.37230   0.37230   0.37230   0.37230   0.37230
     Eigenvalues ---    0.40989   0.41362   0.43364   0.45389   0.45389
     Eigenvalues ---    0.50975   0.53930   0.53930   0.55473   0.80209
     Eigenvalues --- 1000.000001000.000001000.000001000.000001000.00000
     Eigenvalues --- 1000.000001000.000001000.000001000.000001000.00000
     Eigenvalues --- 1000.000001000.000001000.000001000.000001000.00000
     Eigenvalues --- 1000.000001000.000001000.000001000.000001000.00000
     Eigenvalues --- 1000.000001000.000001000.000001000.000001000.00000
     Eigenvalues --- 1000.000001000.000001000.000001000.000001000.00000
     Eigenvalues --- 1000.000001000.000001000.000001000.00000
 RFO step:  Lambda=-4.05939702D-02 EMin= 2.36824330D-03
 Linear search not attempted -- first point.
 Maximum step size (   0.300) exceeded in Quadratic search.
    -- Step size scaled by   0.939
 Iteration  1 RMS(Cart)=  0.09930675 RMS(Int)=  0.00163244
 Iteration  2 RMS(Cart)=  0.00200662 RMS(Int)=  0.00018456
 Iteration  3 RMS(Cart)=  0.00000659 RMS(Int)=  0.00018451
 Iteration  4 RMS(Cart)=  0.00000000 RMS(Int)=  0.00018451
 Variable       Old X    -DE/DX   Delta X   Delta X   Delta X     New X
                                 (Linear)    (Quad)   (Total)
   X11       -0.06491   0.00186   0.00000   0.00000   0.00000  -0.06491
   Y11        4.37655  -0.02310   0.00000   0.00000   0.00000   4.37655
   Z11       -0.01834   0.00023   0.00000   0.00000   0.00000  -0.01834
    R1        2.64826   0.00250   0.00000   0.00281   0.00247   2.65073
    R2        2.64826   0.00919   0.00000   0.01606   0.01574   2.66400
    R3        2.02201   0.00827   0.00000   0.01881   0.01881   2.04081
    R4        2.56096   0.02847   0.00000   0.04562   0.04560   2.60656
    R5        2.02201   0.01162   0.00000   0.02643   0.02643   2.04844
    R6        2.64826   0.03754   0.00000   0.07267   0.07299   2.72125
    R7        2.02201   0.01039   0.00000   0.02363   0.02363   2.04563
    R8        2.64826   0.03246   0.00000   0.06358   0.06392   2.71218
    R9        2.56096   0.04045   0.00000   0.06549   0.06549   2.62645
   R10        2.56096   0.03088   0.00000   0.05047   0.05049   2.61144
   R11        2.02201   0.00802   0.00000   0.01824   0.01824   2.04024
   R12        2.91018  -0.03695   0.00000  -0.10650  -0.10650   2.80368
   R13        2.02201   0.00956   0.00000   0.02173   0.02173   2.04374
   R14        2.02201   0.00935   0.00000   0.02126   0.02126   2.04327
   R15        2.37803  -0.06529   0.00000  -0.07275  -0.07275   2.30528
   R16        2.70231  -0.04205   0.00000  -0.08765  -0.08765   2.61466
   R17        1.81414   0.00452   0.00000   0.00713   0.00713   1.82127
    A1        2.09440  -0.01084   0.00000  -0.04631  -0.04702   2.04738
    A2        2.09440   0.00625   0.00000   0.02704   0.02739   2.12179
    A3        2.09440   0.00459   0.00000   0.01927   0.01962   2.11402
    A4        2.09440   0.00918   0.00000   0.02744   0.02707   2.12147
    A5        2.09440  -0.00646   0.00000  -0.02249  -0.02230   2.07209
    A6        2.09440  -0.00272   0.00000  -0.00495  -0.00477   2.08963
    A7        2.09440   0.01100   0.00000   0.04022   0.04053   2.13492
    A8        2.09440  -0.00298   0.00000  -0.00831  -0.00846   2.08593
    A9        2.09440  -0.00802   0.00000  -0.03191  -0.03206   2.06233
   A10        2.09440  -0.02811   0.00000  -0.08598  -0.08527   2.00913
   A11        2.09440   0.01535   0.00000   0.04716   0.04680   2.14120
   A12        2.09440   0.01277   0.00000   0.03882   0.03846   2.13286
   A13        2.09440   0.00632   0.00000   0.02658   0.02694   2.12134
   A14        2.09440  -0.00402   0.00000  -0.01730  -0.01748   2.07691
   A15        2.09440  -0.00230   0.00000  -0.00927  -0.00946   2.08494
   A16        2.09440   0.01245   0.00000   0.03806   0.03774   2.13214
   A17        2.09440  -0.00389   0.00000  -0.01149  -0.01133   2.08307
   A18        2.09440  -0.00856   0.00000  -0.02657  -0.02642   2.06798
   A19        2.09440   0.00284   0.00000   0.01331   0.01331   2.10770
   A20        2.09440   0.00328   0.00000   0.01536   0.01536   2.10975
   A21        2.09440  -0.00612   0.00000  -0.02867  -0.02867   2.06573
   A22        2.09440   0.02942   0.00000   0.09506   0.09506   2.18945
   A23        2.09440  -0.02320   0.00000  -0.07497  -0.07497   2.01943
   A24        2.09440  -0.00622   0.00000  -0.02010  -0.02010   2.07430
   A25        1.91063  -0.01655   0.00000  -0.07748  -0.07748   1.83315
    D1        0.00000  -0.00004   0.00000  -0.00068  -0.00069  -0.00069
    D2       -3.14159   0.00002   0.00000   0.00018   0.00016  -3.14143
    D3        3.14159  -0.00014   0.00000  -0.00207  -0.00207   3.13953
    D4        0.00000  -0.00008   0.00000  -0.00121  -0.00122  -0.00121
    D5       -0.00000  -0.00003   0.00000  -0.00038  -0.00035  -0.00035
    D6        3.14159  -0.00014   0.00000  -0.00214  -0.00212   3.13947
    D7        3.14159   0.00006   0.00000   0.00101   0.00101  -3.14058
    D8        0.00000  -0.00005   0.00000  -0.00075  -0.00076  -0.00075
    D9        0.00000   0.00003   0.00000   0.00038   0.00036   0.00036
   D10        3.14159   0.00005   0.00000   0.00072   0.00072  -3.14087
   D11        3.14159  -0.00003   0.00000  -0.00048  -0.00050   3.14109
   D12       -0.00000  -0.00001   0.00000  -0.00014  -0.00014  -0.00014
   D13       -0.00000   0.00006   0.00000   0.00095   0.00095   0.00095
   D14        3.14159   0.00002   0.00000   0.00035   0.00037  -3.14122
   D15       -3.14159   0.00004   0.00000   0.00061   0.00059  -3.14100
   D16        0.00000  -0.00000   0.00000   0.00001   0.00002   0.00002
   D17        0.00000  -0.00014   0.00000  -0.00201  -0.00197  -0.00197
   D18       -3.14159  -0.00005   0.00000  -0.00074  -0.00070   3.14089
   D19       -3.14159  -0.00010   0.00000  -0.00141  -0.00140   3.14019
   D20        0.00000  -0.00001   0.00000  -0.00014  -0.00013  -0.00013
   D21       -0.00000   0.00000   0.00000   0.00007   0.00007   0.00007
   D22       -3.14159   0.00004   0.00000   0.00054   0.00055  -3.14104
   D23        3.14159  -0.00004   0.00000  -0.00053  -0.00054   3.14105
   D24        0.00000  -0.00000   0.00000  -0.00006  -0.00006  -0.00006
   D25        0.00000   0.00012   0.00000   0.00171   0.00175   0.00175
   D26        3.14159   0.00023   0.00000   0.00347   0.00350  -3.13809
   D27       -3.14159   0.00004   0.00000   0.00044   0.00047  -3.14112
   D28       -0.00000   0.00015   0.00000   0.00220   0.00222   0.00222
   D29       -3.14159   0.00059   0.00000   0.01228   0.01231  -3.12928
   D30        0.00000   0.00035   0.00000   0.00746   0.00738   0.00739
   D31        0.00000   0.00048   0.00000   0.01052   0.01060   0.01061
   D32       -3.14159   0.00024   0.00000   0.00571   0.00568  -3.13591
   D33       -2.61799  -0.00582   0.00000  -0.10169  -0.10180  -2.71980
   D34        0.52360  -0.00606   0.00000  -0.10650  -0.10638   0.41721
         Item               Value     Threshold  Converged?
 Maximum Force            0.065292     0.000450     NO 
 RMS     Force            0.015291     0.000300     NO 
 Maximum Displacement     0.324882     0.001800     NO 
 RMS     Displacement     0.099508     0.001200     NO 
 Predicted change in Energy=-2.248458D-02
 GradGradGradGradGradGradGradGradGradGradGradGradGradGradGradGradGradGrad

                          Input orientation:                          
 ---------------------------------------------------------------------
 Center     Atomic      Atomic             Coordinates (Angstroms)
 Number     Number       Type             X           Y           Z
 ---------------------------------------------------------------------
      1          6           0        0.007941   -1.956898    0.021161
      2          6           0        1.200857   -1.219801   -0.013813
      3          6           0        1.196976    0.159487   -0.024021
      4          6           0       -0.021707    0.926212    0.000797
      5          6           0       -1.228718    0.150583    0.038074
      6          6           0       -1.200274   -1.231015    0.046453
      7          1           0        0.010584   -3.036829    0.027260
      8          1           0        2.143393   -1.754825   -0.033909
      9          1           0        2.137189    0.695242   -0.051927
     10          1           0       -2.179213    0.662221    0.058803
     11          6           0       -0.034351    2.315971   -0.009705
     12          1           0        0.889607    2.877372   -0.037484
     13          1           0       -0.967031    2.862617    0.010114
     14          6           0       -2.489102   -1.965127    0.081066
     15          8           0       -3.595641   -1.451710    0.092759
     16          8           0       -2.393382   -3.345359    0.094966
     17          1           0       -3.230834   -3.657641   -0.265603
 ---------------------------------------------------------------------
                    Distance matrix (angstroms):
                    1          2          3          4          5
     1  C    0.000000
     2  C    1.402706   0.000000
     3  C    2.427948   1.379331   0.000000
     4  C    2.883334   2.469868   1.440025   0.000000
     5  C    2.443580   2.789888   2.426505   1.435223   0.000000
     6  C    1.409727   2.401914   2.772233   2.458604   1.381916
     7  H    1.079952   2.172564   3.409780   3.963261   3.419880
     8  H    2.145698   1.083987   2.135508   3.446276   3.873873
     9  H    3.401894   2.132032   1.082503   2.171856   3.410877
    10  H    3.412454   3.869386   3.414418   2.174371   1.079650
    11  C    4.273189   3.745322   2.483303   1.389856   2.473399
    12  H    4.914360   4.109046   2.735243   2.153830   3.453750
    13  H    4.917155   4.622385   3.462803   2.154852   2.724774
    14  C    2.497776   3.765676   4.255844   3.801885   2.463056
    15  O    3.639526   4.803284   5.057546   4.293714   2.858786
    16  O    2.774820   4.177127   5.018842   4.886719   3.685279
    17  H    3.669391   5.064223   5.851011   5.601890   4.313149
                    6          7          8          9         10
     6  C    0.000000
     7  H    2.174284   0.000000
     8  H    3.385401   2.489207   0.000000
     9  H    3.854712   4.296170   2.450142   0.000000
    10  H    2.131388   4.298741   4.953345   4.317948   0.000000
    11  C    3.734119   5.353117   4.616767   2.710005   2.709246
    12  H    4.610151   5.979519   4.798879   2.513635   3.786003
    13  H    4.100433   5.979924   5.567535   3.786495   2.512667
    14  C    1.483643   2.720271   4.638691   5.338336   2.645654
    15  O    2.405958   3.939766   5.748429   6.123372   2.544824
    16  O    2.428231   2.424629   4.809234   6.072405   4.013461
    17  H    3.179475   3.313302   5.705848   6.914400   4.457842
                   11         12         13         14         15
    11  C    0.000000
    12  H    1.081499   0.000000
    13  H    1.081252   1.857307   0.000000
    14  C    4.935772   5.905889   5.062494   0.000000
    15  O    5.185432   6.235011   5.052706   1.219902   0.000000
    16  O    6.134055   7.036898   6.370293   1.383616   2.243064
    17  H    6.779899   7.728937   6.907574   1.880146   2.264429
                   16         17
    16  O    0.000000
    17  H    0.963772   0.000000
 Stoichiometry    C8H7O2(1-)
 Framework group  C1[X(C8H7O2)]
 Deg. of freedom    45
 Full point group                 C1      NOp   1
 Largest Abelian subgroup         C1      NOp   1
 Largest concise Abelian subgroup C1      NOp   1
                         Standard orientation:                         
 ---------------------------------------------------------------------
 Center     Atomic      Atomic             Coordinates (Angstroms)
 Number     Number       Type             X           Y           Z
 ---------------------------------------------------------------------
      1          6           0       -0.240022    1.458049   -0.006410
      2          6           0        1.108432    1.844311    0.001265
      3          6           0        2.125939    0.913069    0.006063
      4          6           0        1.872353   -0.504448    0.003088
      5          6           0        0.485882   -0.875220   -0.006449
      6          6           0       -0.516774    0.075759   -0.009912
      7          1           0       -1.036928    2.186908   -0.008267
      8          1           0        1.347434    2.901617    0.004238
      9          1           0        3.155324    1.247937    0.012634
     10          1           0        0.224218   -1.922677   -0.009800
     11          6           0        2.891711   -1.449214    0.008318
     12          1           0        3.929119   -1.143631    0.014990
     13          1           0        2.667939   -2.507053    0.005374
     14          6           0       -1.927561   -0.383422   -0.015279
     15          8           0       -2.292772   -1.547340   -0.006416
     16          8           0       -2.884022    0.616312   -0.025641
     17          1           0       -3.672516    0.211815    0.353193
 ---------------------------------------------------------------------
 Rotational constants (GHZ):           2.7129108           0.9551528           0.7067111
 Standard basis: def2TZVP (5D, 7F)
 There are   402 symmetry adapted cartesian basis functions of A   symmetry.
 There are   352 symmetry adapted basis functions of A   symmetry.
   352 basis functions,   566 primitive gaussians,   402 cartesian basis functions
    36 alpha electrons       36 beta electrons
       nuclear repulsion energy       474.3538673034 Hartrees.
 NAtoms=   17 NActive=   17 NUniq=   17 SFac= 1.00D+00 NAtFMM=   60 NAOKFM=F Big=F
 Integral buffers will be    131072 words long.
 Raffenetti 2 integral format.
 Two-electron integral symmetry is turned on.
 One-electron integrals computed using PRISM.
   1 Symmetry operations used in ECPInt.
 ECPInt:  NShTT=    9591 NPrTT=   29644 LenC2=    9183 LenP2D=   22085.
 LDataN:  DoStor=T MaxTD1= 6 Len=  172
 NBasis=   352 RedAO= T EigKep=  8.64D-06  NBF=   352
 NBsUse=   352 1.00D-06 EigRej= -1.00D+00 NBFU=   352
 Initial guess from the checkpoint file:  "C6H5CH2-.chk"
 B after Tr=    -0.000000    0.000000    0.000000
         Rot=    0.999939   -0.000293   -0.000097   -0.011084 Ang=  -1.27 deg.
 ExpMin= 9.52D-02 ExpMax= 2.70D+04 ExpMxC= 9.22D+02 IAcc=2 IRadAn=         4 AccDes= 0.00D+00
 Harris functional with IExCor=  402 and IRadAn=       4 diagonalized for initial guess.
 HarFok:  IExCor=  402 AccDes= 0.00D+00 IRadAn=         4 IDoV= 1 UseB2=F ITyADJ=14
 ICtDFT=  3500011 ScaDFX=  1.000000  1.000000  1.000000  1.000000
 FoFCou: FMM=F IPFlag=           0 FMFlag=      100000 FMFlg1=           0
         NFxFlg=           0 DoJE=T BraDBF=F KetDBF=T FulRan=T
         wScrn=  0.000000 ICntrl=       500 IOpCl=  0 I1Cent=   200000004 NGrid=           0
         NMat0=    1 NMatS0=      1 NMatT0=    0 NMatD0=    1 NMtDS0=    0 NMtDT0=    0
 Petite list used in FoFCou.
 Requested convergence on RMS density matrix=1.00D-08 within 128 cycles.
 Requested convergence on MAX density matrix=1.00D-06.
 Requested convergence on             energy=1.00D-06.
 No special actions if energy rises.
 Integral accuracy reduced to 1.0D-05 until final iterations.
 Initial convergence to 1.0D-05 achieved.  Increase integral accuracy.
 SCF Done:  E(RB3LYP) =  -459.711610701     A.U. after   14 cycles
            NFock= 14  Conv=0.50D-08     -V/T= 2.0048
   1 Symmetry operations used in ECPInt.
 ECPInt:  NShTT=    9591 NPrTT=   29644 LenC2=    9183 LenP2D=   22085.
 LDataN:  DoStor=T MaxTD1= 7 Len=  274
 Calling FoFJK, ICntrl=      2127 FMM=F ISym2X=0 I1Cent= 0 IOpClX= 0 NMat=1 NMatS=1 NMatT=0.
 ***** Axes restored to original set *****
 -------------------------------------------------------------------
 Center     Atomic                   Forces (Hartrees/Bohr)
 Number     Number              X              Y              Z
 -------------------------------------------------------------------
      1        6           0.005514023   -0.001782246   -0.000270108
      2        6          -0.005751320    0.001542756    0.000212923
      3        6           0.000429899   -0.007459304    0.000104736
      4        6          -0.000521700    0.016027171   -0.000302681
      5        6           0.003057688   -0.002790531    0.000355306
      6        6          -0.005948072   -0.013975548    0.002675759
      7        1          -0.000337398    0.000829837   -0.000174150
      8        1           0.002339104    0.000005514   -0.000042685
      9        1           0.001879586    0.001325350   -0.000079977
     10        1          -0.001973058   -0.000078870    0.000147510
     11        6          -0.000000000   -0.000000000    0.000000000
     12        1           0.000506703    0.001467149   -0.000006553
     13        1          -0.000427646    0.001232627    0.000009015
     14        6          -0.006675574    0.012011818    0.001824026
     15        8           0.005173171   -0.006892653   -0.003545034
     16        8           0.008066242    0.005037950   -0.006429143
     17        1          -0.005341653   -0.000016589    0.005541904
 -------------------------------------------------------------------
 Cartesian Forces:  Max     0.016027171 RMS     0.004700891

 GradGradGradGradGradGradGradGradGradGradGradGradGradGradGradGradGradGrad
 Berny optimization.
 Using GEDIIS/GDIIS optimizer.
 FormGI is forming the generalized inverse of G from B-inverse, IUseBI=4.
 Internal  Forces:  Max     0.007829664 RMS     0.002719611
 Search for a local minimum.
 Step number   2 out of a maximum of   89
 All quantities printed in internal units (Hartrees-Bohrs-Radians)
 Mixed Optimization -- RFO/linear search
 Update second derivatives using D2CorX and points    1    2
 DE= -2.24D-02 DEPred=-2.25D-02 R= 9.98D-01
 TightC=F SS=  1.41D+00  RLast= 3.34D-01 DXNew= 5.0454D-01 1.0033D+00
 Trust test= 9.98D-01 RLast= 3.34D-01 DXMaxT set to 5.05D-01
 ITU=  1  0
 Use linear search instead of GDIIS.
     Eigenvalues ---    0.00237   0.00556   0.01265   0.01727   0.02070
     Eigenvalues ---    0.02070   0.02217   0.02296   0.02344   0.02378
     Eigenvalues ---    0.02474   0.02481   0.02681   0.02681   0.15939
     Eigenvalues ---    0.16000   0.16000   0.16000   0.16000   0.16000
     Eigenvalues ---    0.16237   0.21797   0.22685   0.23936   0.24361
     Eigenvalues ---    0.25000   0.25000   0.25329   0.28655   0.37109
     Eigenvalues ---    0.37230   0.37230   0.37230   0.37230   0.37364
     Eigenvalues ---    0.41134   0.41725   0.43191   0.45310   0.45556
     Eigenvalues ---    0.51016   0.53779   0.55401   0.57366   0.79952
     Eigenvalues --- 1000.000001000.000001000.000001000.000001000.00000
     Eigenvalues --- 1000.000001000.000001000.000001000.000001000.00000
     Eigenvalues --- 1000.000001000.000001000.000001000.000001000.00000
     Eigenvalues --- 1000.000001000.000001000.000001000.000001000.00000
     Eigenvalues --- 1000.000001000.000001000.000001000.000001000.00000
     Eigenvalues --- 1000.000001000.000001000.000001000.000001000.00000
     Eigenvalues --- 1000.000001000.000001000.000001000.00000
 RFO step:  Lambda=-5.13223072D-03 EMin= 2.36832315D-03
 Quartic linear search produced a step of  0.18879.
 Iteration  1 RMS(Cart)=  0.04886369 RMS(Int)=  0.02630543
 Iteration  2 RMS(Cart)=  0.03085629 RMS(Int)=  0.00260215
 Iteration  3 RMS(Cart)=  0.00251413 RMS(Int)=  0.00004729
 Iteration  4 RMS(Cart)=  0.00000764 RMS(Int)=  0.00004709
 Iteration  5 RMS(Cart)=  0.00000000 RMS(Int)=  0.00004709
 Variable       Old X    -DE/DX   Delta X   Delta X   Delta X     New X
                                 (Linear)    (Quad)   (Total)
   X11       -0.06491  -0.00002   0.00000   0.00000   0.00000  -0.06491
   Y11        4.37655   0.00649   0.00000   0.00000   0.00000   4.37655
   Z11       -0.01834   0.00002  -0.00000   0.00000  -0.00000  -0.01834
    R1        2.65073  -0.00126   0.00047  -0.00404  -0.00366   2.64708
    R2        2.66400   0.00235   0.00297   0.00352   0.00641   2.67040
    R3        2.04081  -0.00083   0.00355  -0.00572  -0.00217   2.03864
    R4        2.60656  -0.00029   0.00861  -0.00824   0.00037   2.60693
    R5        2.04844   0.00203   0.00499   0.00193   0.00692   2.05536
    R6        2.72125   0.00409   0.01378  -0.00140   0.01246   2.73371
    R7        2.04563   0.00229   0.00446   0.00320   0.00766   2.05330
    R8        2.71218   0.00408   0.01207   0.00051   0.01266   2.72484
    R9        2.62645  -0.00379   0.01236  -0.01858  -0.00621   2.62023
   R10        2.61144   0.00348   0.00953  -0.00010   0.00943   2.62087
   R11        2.04024   0.00170   0.00344   0.00227   0.00571   2.04596
   R12        2.80368  -0.00614  -0.02011  -0.00632  -0.02642   2.77726
   R13        2.04374   0.00119   0.00410   0.00011   0.00421   2.04795
   R14        2.04327   0.00099   0.00401  -0.00045   0.00357   2.04684
   R15        2.30528  -0.00763  -0.01373   0.00001  -0.01372   2.29156
   R16        2.61466  -0.00483  -0.01655   0.00070  -0.01585   2.59881
   R17        1.82127   0.00257   0.00135   0.00428   0.00563   1.82689
    A1        2.04738  -0.00156  -0.00888  -0.00080  -0.00986   2.03752
    A2        2.12179   0.00112   0.00517   0.00204   0.00730   2.12909
    A3        2.11402   0.00044   0.00370  -0.00124   0.00255   2.11657
    A4        2.12147   0.00299   0.00511   0.00831   0.01333   2.13479
    A5        2.07209  -0.00031  -0.00421   0.00605   0.00188   2.07397
    A6        2.08963  -0.00268  -0.00090  -0.01435  -0.01521   2.07442
    A7        2.13492   0.00192   0.00765   0.00080   0.00853   2.14345
    A8        2.08593  -0.00074  -0.00160  -0.00115  -0.00278   2.08315
    A9        2.06233  -0.00119  -0.00605   0.00035  -0.00575   2.05658
   A10        2.00913  -0.00576  -0.01610  -0.01145  -0.02737   1.98176
   A11        2.14120   0.00294   0.00884   0.00523   0.01398   2.15517
   A12        2.13286   0.00283   0.00726   0.00622   0.01339   2.14625
   A13        2.12134   0.00396   0.00509   0.01672   0.02189   2.14323
   A14        2.07691  -0.00096  -0.00330  -0.00025  -0.00359   2.07332
   A15        2.08494  -0.00301  -0.00179  -0.01648  -0.01830   2.06663
   A16        2.13214  -0.00155   0.00713  -0.01358  -0.00654   2.12560
   A17        2.08307   0.00517  -0.00214   0.02569   0.02360   2.10666
   A18        2.06798  -0.00361  -0.00499  -0.01211  -0.01706   2.05092
   A19        2.10770   0.00077   0.00251   0.00285   0.00536   2.11307
   A20        2.10975   0.00048   0.00290   0.00036   0.00325   2.11301
   A21        2.06573  -0.00125  -0.00541  -0.00321  -0.00862   2.05711
   A22        2.18945   0.00783   0.01795   0.01911   0.03706   2.22651
   A23        2.01943  -0.00641  -0.01415  -0.01614  -0.03029   1.98913
   A24        2.07430  -0.00142  -0.00379  -0.00297  -0.00676   2.06753
   A25        1.83315  -0.00182  -0.01463   0.00247  -0.01216   1.82099
    D1       -0.00069  -0.00006  -0.00013  -0.00216  -0.00230  -0.00299
    D2       -3.14143  -0.00000   0.00003  -0.00022  -0.00020   3.14155
    D3        3.13953  -0.00012  -0.00039  -0.00429  -0.00468   3.13485
    D4       -0.00121  -0.00006  -0.00023  -0.00235  -0.00258  -0.00379
    D5       -0.00035   0.00001  -0.00007   0.00076   0.00071   0.00036
    D6        3.13947  -0.00001  -0.00040   0.00069   0.00030   3.13978
    D7       -3.14058   0.00007   0.00019   0.00288   0.00307  -3.13750
    D8       -0.00075   0.00005  -0.00014   0.00281   0.00267   0.00191
    D9        0.00036   0.00003   0.00007   0.00087   0.00092   0.00129
   D10       -3.14087   0.00005   0.00014   0.00192   0.00204  -3.13883
   D11        3.14109  -0.00003  -0.00009  -0.00107  -0.00117   3.13993
   D12       -0.00014  -0.00000  -0.00003  -0.00003  -0.00005  -0.00019
   D13        0.00095   0.00005   0.00018   0.00174   0.00191   0.00286
   D14       -3.14122   0.00002   0.00007   0.00086   0.00094  -3.14028
   D15       -3.14100   0.00002   0.00011   0.00071   0.00081  -3.14019
   D16        0.00002  -0.00001   0.00000  -0.00017  -0.00016  -0.00014
   D17       -0.00197  -0.00010  -0.00037  -0.00314  -0.00350  -0.00547
   D18        3.14089  -0.00006  -0.00013  -0.00216  -0.00227   3.13862
   D19        3.14019  -0.00007  -0.00026  -0.00227  -0.00254   3.13766
   D20       -0.00013  -0.00003  -0.00002  -0.00129  -0.00131  -0.00143
   D21        0.00007   0.00000   0.00001   0.00002   0.00004   0.00011
   D22       -3.14104   0.00002   0.00010   0.00060   0.00071  -3.14033
   D23        3.14105  -0.00003  -0.00010  -0.00093  -0.00104   3.14001
   D24       -0.00006  -0.00001  -0.00001  -0.00035  -0.00036  -0.00042
   D25        0.00175   0.00007   0.00033   0.00199   0.00234   0.00408
   D26       -3.13809   0.00009   0.00066   0.00202   0.00269  -3.13540
   D27       -3.14112   0.00004   0.00009   0.00101   0.00112  -3.14000
   D28        0.00222   0.00005   0.00042   0.00105   0.00148   0.00370
   D29       -3.12928   0.00041   0.00232   0.04543   0.04776  -3.08152
   D30        0.00739   0.00036   0.00139   0.04654   0.04792   0.05530
   D31        0.01061   0.00039   0.00200   0.04536   0.04738   0.05799
   D32       -3.13591   0.00034   0.00107   0.04647   0.04753  -3.08838
   D33       -2.71980  -0.00631  -0.01922  -0.34155  -0.36080  -3.08059
   D34        0.41721  -0.00633  -0.02008  -0.34046  -0.36052   0.05670
         Item               Value     Threshold  Converged?
 Maximum Force            0.007830     0.000450     NO 
 RMS     Force            0.002671     0.000300     NO 
 Maximum Displacement     0.632962     0.001800     NO 
 RMS     Displacement     0.077152     0.001200     NO 
 Predicted change in Energy=-4.027640D-03
 GradGradGradGradGradGradGradGradGradGradGradGradGradGradGradGradGradGrad

                          Input orientation:                          
 ---------------------------------------------------------------------
 Center     Atomic      Atomic             Coordinates (Angstroms)
 Number     Number       Type             X           Y           Z
 ---------------------------------------------------------------------
      1          6           0        0.016537   -1.982634    0.009804
      2          6           0        1.199756   -1.233197   -0.012578
      3          6           0        1.198908    0.146313   -0.019108
      4          6           0       -0.017223    0.929530   -0.001907
      5          6           0       -1.216901    0.130082    0.026295
      6          6           0       -1.195680   -1.256657    0.029424
      7          1           0        0.023241   -3.061414    0.008642
      8          1           0        2.152516   -1.757591   -0.028065
      9          1           0        2.145453    0.679467   -0.039312
     10          1           0       -2.176782    0.630596    0.043532
     11          6           0       -0.034351    2.315971   -0.009705
     12          1           0        0.886773    2.886580   -0.029636
     13          1           0       -0.968798    2.863495    0.005003
     14          6           0       -2.488478   -1.955295    0.051316
     15          8           0       -3.595864   -1.462733    0.011638
     16          8           0       -2.382378   -3.324707    0.119926
     17          1           0       -3.295433   -3.638360    0.069346
 ---------------------------------------------------------------------
                    Distance matrix (angstroms):
                    1          2          3          4          5
     1  C    0.000000
     2  C    1.400772   0.000000
     3  C    2.435416   1.379526   0.000000
     4  C    2.912383   2.481641   1.446617   0.000000
     5  C    2.446468   2.774936   2.416290   1.441922   0.000000
     6  C    1.413116   2.395919   2.775740   2.483779   1.386905
     7  H    1.078802   2.174170   3.416501   3.991163   3.424020
     8  H    2.148135   1.087649   2.129390   3.453849   3.862542
     9  H    3.409029   2.133857   1.086558   2.177407   3.407573
    10  H    3.411855   3.857186   3.410826   2.180624   1.082674
    11  C    4.298950   3.757609   2.495682   1.386568   2.485524
    12  H    4.946525   4.131684   2.758006   2.155927   3.467975
    13  H    4.945288   4.635281   3.476005   2.155404   2.744733
    14  C    2.505508   3.758800   4.244824   3.798967   2.442608
    15  O    3.649622   4.801171   5.057649   4.304623   2.862995
    16  O    2.751015   4.150139   4.989281   4.869018   3.647283
    17  H    3.703259   5.098847   5.876281   5.622932   4.303871
                    6          7          8          9         10
     6  C    0.000000
     7  H    2.177923   0.000000
     8  H    3.385950   2.497021   0.000000
     9  H    3.862185   4.301195   2.437095   0.000000
    10  H    2.127083   4.297937   4.944834   4.323305   0.000000
    11  C    3.756845   5.377725   4.623487   2.725907   2.726413
    12  H    4.637511   6.010473   4.813567   2.540810   3.805284
    13  H    4.126466   6.007388   5.576570   3.804012   2.539005
    14  C    1.469660   2.744823   4.645881   5.331370   2.604621
    15  O    2.409080   3.956477   5.756074   6.128160   2.529198
    16  O    2.386059   2.422542   4.800314   6.046489   3.961380
    17  H    3.175385   3.368999   5.764281   6.946847   4.413166
                   11         12         13         14         15
    11  C    0.000000
    12  H    1.083726   0.000000
    13  H    1.083140   1.856039   0.000000
    14  C    4.926477   5.902764   5.052951   0.000000
    15  O    5.192633   6.245980   5.061400   1.212640   0.000000
    16  O    6.111242   7.020670   6.348643   1.375229   2.225134
    17  H    6.789327   7.750838   6.905903   1.866604   2.197030
                   16         17
    16  O    0.000000
    17  H    0.966750   0.000000
 Stoichiometry    C8H7O2(1-)
 Framework group  C1[X(C8H7O2)]
 Deg. of freedom    45
 Full point group                 C1      NOp   1
 Largest Abelian subgroup         C1      NOp   1
 Largest concise Abelian subgroup C1      NOp   1
                         Standard orientation:                         
 ---------------------------------------------------------------------
 Center     Atomic      Atomic             Coordinates (Angstroms)
 Number     Number       Type             X           Y           Z
 ---------------------------------------------------------------------
      1          6           0       -0.247322    1.475225    0.015241
      2          6           0        1.104300    1.843027    0.015864
      3          6           0        2.121992    0.911734    0.006315
      4          6           0        1.879438   -0.514344   -0.006636
      5          6           0        0.479708   -0.860556   -0.012313
      6          6           0       -0.529521    0.090651    0.000496
      7          1           0       -1.038984    2.207959    0.028910
      8          1           0        1.360197    2.900086    0.026980
      9          1           0        3.154304    1.250747    0.009886
     10          1           0        0.201356   -1.906762   -0.024823
     11          6           0        2.891283   -1.462329   -0.014818
     12          1           0        3.934087   -1.167349   -0.011678
     13          1           0        2.664824   -2.521475   -0.025627
     14          6           0       -1.917560   -0.392306    0.000977
     15          8           0       -2.300369   -1.542013    0.047090
     16          8           0       -2.857796    0.609849   -0.052823
     17          1           0       -3.704378    0.147492    0.011454
 ---------------------------------------------------------------------
 Rotational constants (GHZ):           2.7040553           0.9587216           0.7079656
 Standard basis: def2TZVP (5D, 7F)
 There are   402 symmetry adapted cartesian basis functions of A   symmetry.
 There are   352 symmetry adapted basis functions of A   symmetry.
   352 basis functions,   566 primitive gaussians,   402 cartesian basis functions
    36 alpha electrons       36 beta electrons
       nuclear repulsion energy       474.7918541109 Hartrees.
 NAtoms=   17 NActive=   17 NUniq=   17 SFac= 1.00D+00 NAtFMM=   60 NAOKFM=F Big=F
 Integral buffers will be    131072 words long.
 Raffenetti 2 integral format.
 Two-electron integral symmetry is turned on.
 One-electron integrals computed using PRISM.
   1 Symmetry operations used in ECPInt.
 ECPInt:  NShTT=    9591 NPrTT=   29644 LenC2=    9181 LenP2D=   22088.
 LDataN:  DoStor=T MaxTD1= 6 Len=  172
 NBasis=   352 RedAO= T EigKep=  8.67D-06  NBF=   352
 NBsUse=   352 1.00D-06 EigRej= -1.00D+00 NBFU=   352
 Initial guess from the checkpoint file:  "C6H5CH2-.chk"
 B after Tr=     0.000000   -0.000000    0.000000
         Rot=    1.000000   -0.000084    0.000052    0.000372 Ang=  -0.04 deg.
 ExpMin= 9.52D-02 ExpMax= 2.70D+04 ExpMxC= 9.22D+02 IAcc=2 IRadAn=         4 AccDes= 0.00D+00
 Harris functional with IExCor=  402 and IRadAn=       4 diagonalized for initial guess.
 HarFok:  IExCor=  402 AccDes= 0.00D+00 IRadAn=         4 IDoV= 1 UseB2=F ITyADJ=14
 ICtDFT=  3500011 ScaDFX=  1.000000  1.000000  1.000000  1.000000
 FoFCou: FMM=F IPFlag=           0 FMFlag=      100000 FMFlg1=           0
         NFxFlg=           0 DoJE=T BraDBF=F KetDBF=T FulRan=T
         wScrn=  0.000000 ICntrl=       500 IOpCl=  0 I1Cent=   200000004 NGrid=           0
         NMat0=    1 NMatS0=      1 NMatT0=    0 NMatD0=    1 NMtDS0=    0 NMtDT0=    0
 Petite list used in FoFCou.
 Requested convergence on RMS density matrix=1.00D-08 within 128 cycles.
 Requested convergence on MAX density matrix=1.00D-06.
 Requested convergence on             energy=1.00D-06.
 No special actions if energy rises.
 Integral accuracy reduced to 1.0D-05 until final iterations.
 Initial convergence to 1.0D-05 achieved.  Increase integral accuracy.
 SCF Done:  E(RB3LYP) =  -459.715335134     A.U. after   13 cycles
            NFock= 13  Conv=0.99D-08     -V/T= 2.0048
   1 Symmetry operations used in ECPInt.
 ECPInt:  NShTT=    9591 NPrTT=   29644 LenC2=    9181 LenP2D=   22088.
 LDataN:  DoStor=T MaxTD1= 7 Len=  274
 Calling FoFJK, ICntrl=      2127 FMM=F ISym2X=0 I1Cent= 0 IOpClX= 0 NMat=1 NMatS=1 NMatT=0.
 ***** Axes restored to original set *****
 -------------------------------------------------------------------
 Center     Atomic                   Forces (Hartrees/Bohr)
 Number     Number              X              Y              Z
 -------------------------------------------------------------------
      1        6           0.001335702    0.000699355    0.000184850
      2        6          -0.001361100    0.000401176   -0.000277693
      3        6           0.000124362   -0.001010589    0.000016373
      4        6          -0.000213568    0.003865652    0.000227971
      5        6           0.001721513    0.000018666   -0.000300210
      6        6           0.001330132   -0.000028274    0.000464869
      7        1           0.000108714    0.000161479    0.000092501
      8        1           0.000028234    0.000400685   -0.000014720
      9        1          -0.000000990   -0.000277818    0.000064626
     10        1          -0.000366541   -0.000214033   -0.000050586
     11        6          -0.000000000   -0.000000000    0.000000000
     12        1          -0.000368468    0.000049648    0.000002948
     13        1           0.000313830    0.000116070   -0.000026168
     14        6           0.002281490   -0.001613877   -0.000040438
     15        8          -0.005128940    0.002211953   -0.000306346
     16        8           0.001539010   -0.001287533   -0.001004122
     17        1          -0.001092899    0.000343749    0.000925363
 -------------------------------------------------------------------
 Cartesian Forces:  Max     0.005128940 RMS     0.001192679

 GradGradGradGradGradGradGradGradGradGradGradGradGradGradGradGradGradGrad
 Berny optimization.
 Using GEDIIS/GDIIS optimizer.
 FormGI is forming the generalized inverse of G from B-inverse, IUseBI=4.
 Internal  Forces:  Max     0.005593700 RMS     0.001003035
 Search for a local minimum.
 Step number   3 out of a maximum of   89
 All quantities printed in internal units (Hartrees-Bohrs-Radians)
 Mixed Optimization -- En-DIIS/RFO-DIIS
 Update second derivatives using D2CorX and points    2    3
 DE= -3.72D-03 DEPred=-4.03D-03 R= 9.25D-01
 TightC=F SS=  1.41D+00  RLast= 5.27D-01 DXNew= 8.4853D-01 1.5798D+00
 Trust test= 9.25D-01 RLast= 5.27D-01 DXMaxT set to 8.49D-01
 ITU=  1  1  0
 Use linear search instead of GDIIS.
     Eigenvalues ---    0.00241   0.00542   0.01529   0.01718   0.02070
     Eigenvalues ---    0.02073   0.02221   0.02296   0.02347   0.02377
     Eigenvalues ---    0.02474   0.02486   0.02681   0.02681   0.15717
     Eigenvalues ---    0.16000   0.16000   0.16000   0.16000   0.16011
     Eigenvalues ---    0.16243   0.20984   0.22354   0.23927   0.24290
     Eigenvalues ---    0.25000   0.25019   0.25366   0.29094   0.37093
     Eigenvalues ---    0.37230   0.37230   0.37230   0.37236   0.37369
     Eigenvalues ---    0.41204   0.41709   0.43115   0.45237   0.45635
     Eigenvalues ---    0.50999   0.53649   0.55380   0.57393   0.81951
     Eigenvalues --- 1000.000001000.000001000.000001000.000001000.00000
     Eigenvalues --- 1000.000001000.000001000.000001000.000001000.00000
     Eigenvalues --- 1000.000001000.000001000.000001000.000001000.00000
     Eigenvalues --- 1000.000001000.000001000.000001000.000001000.00000
     Eigenvalues --- 1000.000001000.000001000.000001000.000001000.00000
     Eigenvalues --- 1000.000001000.000001000.000001000.000001000.00000
     Eigenvalues --- 1000.000001000.000001000.000001000.00000
 RFO step:  Lambda=-2.28661047D-04 EMin= 2.41206497D-03
 Quartic linear search produced a step of  0.09045.
 Iteration  1 RMS(Cart)=  0.02232633 RMS(Int)=  0.00108538
 Iteration  2 RMS(Cart)=  0.00112857 RMS(Int)=  0.00006191
 Iteration  3 RMS(Cart)=  0.00000341 RMS(Int)=  0.00006187
 Iteration  4 RMS(Cart)=  0.00000000 RMS(Int)=  0.00006187
 Variable       Old X    -DE/DX   Delta X   Delta X   Delta X     New X
                                 (Linear)    (Quad)   (Total)
   X11       -0.06491   0.00024   0.00000   0.00000  -0.00000  -0.06491
   Y11        4.37655   0.00384   0.00000   0.00000   0.00000   4.37655
   Z11       -0.01834  -0.00004  -0.00000   0.00000   0.00000  -0.01834
    R1        2.64708  -0.00092  -0.00033  -0.00192  -0.00225   2.64482
    R2        2.67040   0.00016   0.00058   0.00016   0.00074   2.67114
    R3        2.03864  -0.00016  -0.00020  -0.00002  -0.00022   2.03842
    R4        2.60693  -0.00109   0.00003  -0.00165  -0.00162   2.60531
    R5        2.05536  -0.00017   0.00063  -0.00064  -0.00002   2.05534
    R6        2.73371  -0.00015   0.00113  -0.00032   0.00081   2.73452
    R7        2.05330  -0.00014   0.00069  -0.00066   0.00004   2.05333
    R8        2.72484  -0.00068   0.00115  -0.00166  -0.00052   2.72432
    R9        2.62023  -0.00367  -0.00056  -0.00601  -0.00657   2.61367
   R10        2.62087  -0.00021   0.00085  -0.00038   0.00048   2.62135
   R11        2.04596   0.00023   0.00052   0.00048   0.00100   2.04696
   R12        2.77726   0.00227  -0.00239   0.00912   0.00673   2.78399
   R13        2.04795  -0.00029   0.00038  -0.00085  -0.00047   2.04748
   R14        2.04684  -0.00021   0.00032  -0.00059  -0.00026   2.04657
   R15        2.29156   0.00559  -0.00124   0.00766   0.00642   2.29798
   R16        2.59881   0.00097  -0.00143   0.00253   0.00109   2.59990
   R17        1.82689   0.00087   0.00051   0.00138   0.00189   1.82878
    A1        2.03752  -0.00013  -0.00089  -0.00071  -0.00161   2.03591
    A2        2.12909  -0.00004   0.00066  -0.00051   0.00016   2.12925
    A3        2.11657   0.00017   0.00023   0.00122   0.00145   2.11802
    A4        2.13479   0.00062   0.00121   0.00210   0.00330   2.13809
    A5        2.07397   0.00006   0.00017   0.00064   0.00081   2.07478
    A6        2.07442  -0.00068  -0.00138  -0.00273  -0.00411   2.07031
    A7        2.14345  -0.00003   0.00077  -0.00056   0.00021   2.14367
    A8        2.08315  -0.00023  -0.00025  -0.00132  -0.00157   2.08158
    A9        2.05658   0.00026  -0.00052   0.00188   0.00136   2.05794
   A10        1.98176  -0.00053  -0.00248  -0.00160  -0.00407   1.97769
   A11        2.15517   0.00068   0.00126   0.00265   0.00392   2.15909
   A12        2.14625  -0.00015   0.00121  -0.00106   0.00015   2.14640
   A13        2.14323   0.00080   0.00198   0.00276   0.00474   2.14797
   A14        2.07332  -0.00003  -0.00032   0.00045   0.00012   2.07344
   A15        2.06663  -0.00077  -0.00166  -0.00320  -0.00485   2.06178
   A16        2.12560  -0.00073  -0.00059  -0.00196  -0.00256   2.12304
   A17        2.10666   0.00161   0.00213   0.00489   0.00702   2.11369
   A18        2.05092  -0.00087  -0.00154  -0.00292  -0.00446   2.04646
   A19        2.11307   0.00015   0.00048   0.00079   0.00127   2.11434
   A20        2.11301   0.00019   0.00029   0.00132   0.00161   2.11462
   A21        2.05711  -0.00034  -0.00078  -0.00211  -0.00288   2.05423
   A22        2.22651   0.00002   0.00335  -0.00127   0.00177   2.22828
   A23        1.98913   0.00009  -0.00274   0.00166  -0.00140   1.98774
   A24        2.06753  -0.00011  -0.00061  -0.00020  -0.00113   2.06640
   A25        1.82099  -0.00113  -0.00110  -0.00805  -0.00915   1.81184
    D1       -0.00299   0.00013  -0.00021   0.00631   0.00610   0.00311
    D2        3.14155   0.00002  -0.00002   0.00139   0.00137  -3.14026
    D3        3.13485   0.00012  -0.00042   0.00599   0.00557   3.14041
    D4       -0.00379   0.00001  -0.00023   0.00108   0.00084  -0.00296
    D5        0.00036  -0.00004   0.00006  -0.00252  -0.00246  -0.00210
    D6        3.13978  -0.00001   0.00003  -0.00091  -0.00088   3.13890
    D7       -3.13750  -0.00003   0.00028  -0.00220  -0.00193  -3.13943
    D8        0.00191  -0.00000   0.00024  -0.00059  -0.00034   0.00157
    D9        0.00129  -0.00009   0.00008  -0.00420  -0.00411  -0.00283
   D10       -3.13883  -0.00010   0.00018  -0.00481  -0.00462   3.13973
   D11        3.13993   0.00001  -0.00011   0.00072   0.00061   3.14054
   D12       -0.00019   0.00000  -0.00000   0.00011   0.00010  -0.00009
   D13        0.00286  -0.00003   0.00017  -0.00175  -0.00157   0.00128
[...]
     1          1.35140114         -0.33927662          5.61102961
     1          4.58599138         -1.15895017          2.27521831
     1          3.54908732         -0.89527087         -2.18831771
     1         -4.13500673          1.05490620         -0.20791322
     6         -1.03975493          0.26900561         -4.24326425
     1          0.35183615         -0.08397494         -5.70302621
     1         -2.93735117          0.75076846         -4.83893672
     6         -3.61264534          0.92164222          4.66783081
     8         -5.79987330          1.47691188          4.23139575
     8         -2.85748528          0.72996041          7.14862423
     1         -4.37192401          1.11467581          8.09950731

 Electric dipole moment (dipole orientation):
 (Debye = 10**-18 statcoulomb cm , SI units = C m)
                  (au)            (Debye)         (10**-30 SI)
   Tot        0.196216D+01      0.498732D+01      0.166359D+02
   x          0.000000D+00      0.000000D+00      0.000000D+00
   y          0.000000D+00      0.000000D+00      0.000000D+00
   z          0.196216D+01      0.498732D+01      0.166359D+02

 Dipole polarizability, Alpha (dipole orientation).
 (esu units = cm**3 , SI units = C**2 m**2 J**-1)
 Alpha(0;0):
               (au)            (10**-24 esu)      (10**-40 SI)
   iso        0.122057D+03      0.180870D+02      0.201245D+02
   aniso      0.100833D+03      0.149419D+02      0.166251D+02
   xx         0.122522D+03      0.181559D+02      0.202012D+02
   yx        -0.154169D+02     -0.228455D+01     -0.254190D+01
   yy         0.656915D+02      0.973447D+01      0.108311D+02
   zx         0.563759D+00      0.835404D-01      0.929513D-01
   zy        -0.147445D+00     -0.218491D-01     -0.243104D-01
   zz         0.177957D+03      0.263706D+02      0.293412D+02

 ----------------------------------------------------------------------
 1\1\GINC-N02\Freq\RB3LYP\def2TZVP\C8H7O2(1-)\UNKNOWN\20-Jan-2025\0\\#N
  Geom=AllCheck Guess=TCheck SCRF=Check GenChk RB3LYP/def2TZVP Freq\\op
 t meta\\-1,1\C,0.022335744,-1.9805374626,0.0130905481\C,1.2024465275,-
 1.2289553283,-0.0114394719\C,1.2033623017,0.1495926381,-0.0189781834\C
 ,-0.0122522344,0.934248659,-0.00237478\C,-1.2092052936,0.1316105903,0.
 0227805637\C,-1.1905275441,-1.2550061571,0.0300324323\H,0.0317055531,-
 3.0591864447,0.0184253219\H,2.1571040105,-1.7496777008,-0.0249841592\H
 ,2.1517241259,0.6791895082,-0.0381814799\H,-2.171408396,0.6287795776,0
 .0368297049\C,-0.03435104,2.31597087,-0.00970517\H,0.8830902723,2.8920
 162595,-0.0286782558\H,-0.969429669,2.862006661,0.003495217\C,-2.48965
 77402,-1.9474196677,0.0563551162\O,-3.5980216596,-1.4468359949,0.07280
 46206\O,-2.3917040619,-3.3199133752,0.062308749\H,-3.3122776156,-3.618
 447767,0.0800727205\\Version=ES64L-G16RevA.03\State=1-A\HF=-459.715474
 1\RMSD=3.499e-09\RMSF=8.230e-06\ZeroPoint=0.1239076\Thermal=0.136138\D
 ipole=-0.4530735,-1.9090498,0.0184872\DipoleDeriv=-0.536699,0.2057328,
 0.0026786,-0.0455253,-0.7175231,0.0032058,0.0039133,-0.0000068,-0.3143
 55,0.3767433,0.1267817,-0.0101681,0.2869705,0.6070237,-0.009338,-0.010
 6678,-0.0070586,-0.171522,0.0322143,0.7405232,-0.0082106,-0.2270157,-0
 .6697652,0.0065631,-0.0030421,-0.0101244,-0.2057684,-0.3529254,-0.0524
 355,0.0048988,0.0483185,1.6976261,-0.010838,0.0043774,-0.0091783,-0.08
 63524,0.0456076,-0.5783458,-0.0000234,0.4816838,-0.4360085,-0.0066104,
 -0.005944,0.011633,-0.1407215,-0.3308213,-0.6827404,0.008306,-0.816535
 3,0.1157409,0.0130183,0.0090078,0.0103674,-0.0695488,0.0520907,0.00902
 89,0.0020094,0.019113,-0.1218841,0.0011814,0.0019789,0.0008388,0.17078
 69,-0.1932815,0.1440762,0.0045671,0.1371587,-0.0113593,-0.0016457,0.00
 45197,-0.0016446,0.1176435,-0.1734994,-0.0863018,0.0054572,-0.12812,-0
 .0316667,0.0030093,0.0057016,0.0023532,0.1158384,-0.0515447,0.0552243,
 0.0025352,0.0745322,0.0082844,-0.0007344,0.0024955,-0.0003356,0.111571
 2,0.,0.,0.,0.,0.,0.,0.,0.,0.,-0.1594846,-0.158672,0.0069759,-0.0562732
 ,-0.1086876,0.0026412,0.0064062,0.0043045,0.1942046,-0.1460638,0.14154
 09,0.0051269,0.0344654,-0.0922952,0.0009868,0.0057213,-0.0009501,0.195
 0198,2.0852866,0.5456956,-0.0346534,0.2967714,1.9146136,-0.0143311,-0.
 0333395,-0.0185498,0.2560886,-1.5511845,-0.1847729,0.0212716,0.0823492
 ,-0.6628233,0.0001497,0.0198478,0.0047438,-0.3805827,-0.4120239,-0.122
 047,0.0016106,-0.2450022,-1.446785,0.0102869,0.0022931,0.0081546,-0.35
 64172,0.1304271,-0.0325073,0.0031019,0.0671787,0.3416791,-0.0014172,0.
 0025549,0.0003342,0.2978709\Polar=128.9010512,11.0481129,175.4657889,-
 1.2214802,-0.8212821,61.8042817\Quadrupole=-0.0722612,-5.3469876,5.419
 2488,-2.2170824,0.1067645,0.0987695\PG=C01 [X(C8H7O2)]\NImag=0\\0.6007
 1098,0.01157052,0.72744124,-0.00920248,-0.00365121,0.07162602,-0.25310
 960,-0.11165119,0.00427298,0.67994889,-0.05945808,-0.16646752,0.001696
 35,-0.02659230,0.68243000,0.00400189,0.00261375,-0.04054864,-0.0096855
 6,-0.00267775,0.10892660,0.00981366,-0.02753380,0.00010960,-0.11757646
 ,-0.01811422,0.00146535,0.61621582,-0.05963400,-0.03775657,0.00128767,
 0.02543730,-0.36912367,0.00136291,0.04785478,0.71111880,0.00028939,0.0
 0072383,0.00774177,0.00122660,0.00212299,-0.03827156,-0.00927009,-0.00
 421671,0.09246555,-0.04038591,-0.00074928,0.00058391,0.02446104,0.0456
 8480,-0.00072137,-0.21152370,0.04070142,0.00248460,0.55934097,0.002832
 79,0.00879719,-0.00014095,0.03259477,-0.02517879,-0.00043425,0.0619906
 0,-0.14406478,-0.00057003,-0.00239946,0.70618522,0.00056612,-0.0000709
 6,-0.00669583,-0.00064985,-0.00066847,-0.00287647,0.00237451,-0.000200
 87,-0.05371985,-0.00710709,-0.00306102,0.14724942,0.00337789,0.0292832
 2,0.00004802,-0.00250744,0.00297846,-0.00002566,-0.03288290,-0.0046373
 6,0.00055488,-0.21469269,-0.06152868,0.00304129,0.64180421,0.04942346,
 -0.03378082,-0.00057498,-0.01967041,-0.02432175,0.00045319,0.00174102,
 0.03700487,-0.00024402,-0.04577288,-0.14553699,0.00127074,-0.04304655,
 0.69711977,-0.00006906,-0.00023987,0.01515868,0.00009666,0.00006794,-0
 .00310686,0.00052064,-0.00013567,-0.00223705,0.00296133,0.00154485,-0.
 05880726,-0.00899933,-0.00245647,0.11082321,-0.22717992,0.10083655,0.0
 0253949,-0.06266563,-0.02286377,0.00126716,-0.00463673,0.02179434,-0.0
 0007169,0.01992217,-0.03314882,-0.00016116,-0.11149291,-0.00136569,0.0
 0102711,0.61979564,0.06432628,-0.16054319,-0.00051337,0.01064885,0.033
 03293,-0.00034551,0.00058153,-0.02391928,0.00011150,-0.04117555,-0.024
 52087,0.00084706,0.02415969,-0.34523683,0.00117742,-0.03141515,0.68118
 049,0.00272838,-0.00113002,-0.04849978,0.00109264,0.00023300,0.0036724
 7,0.00004128,-0.00025698,-0.00203335,-0.00011164,0.00071286,0.00023922
 ,0.00088392,0.00161431,-0.05277714,-0.00822548,-0.00244365,0.13497488,
 -0.05599518,0.00246926,0.00079283,0.00468953,-0.02790509,-0.00002856,-
 0.00443656,-0.00084355,0.00016362,-0.00059648,-0.00024119,0.00001129,-
 0.00523570,0.00101760,0.00012106,0.00426245,0.02677912,-0.00029688,0.0
 5622802,0.00542668,-0.34203537,0.00161032,0.00335399,-0.01157855,-0.00
 002390,-0.00304349,0.00098363,0.00007025,-0.00007670,0.00057162,-0.000
 00207,0.00299238,0.00105791,-0.00004779,-0.00221129,-0.01222003,0.0000
 7651,-0.00216687,0.36474970,0.00077740,0.00164482,-0.00925271,-0.00018
 480,0.00052836,-0.00536116,0.00017810,0.00003100,0.00479400,0.00001056
 ,0.00000382,-0.00003669,0.00010715,-0.00001681,0.00203071,-0.00015054,
 -0.00041378,-0.00491383,-0.00071999,-0.00176143,0.01387980,-0.01998391
 ,0.01669264,0.00023440,-0.25808347,0.10842227,0.00333220,0.00042609,-0
 .00093189,-0.00000319,0.00206804,-0.00059391,0.00012167,0.00082041,-0.
 00051670,-0.00001890,-0.00339254,-0.00504185,0.00020046,0.00115376,-0.
 00064487,-0.00005960,0.27723523,-0.01408470,0.01131107,0.00017338,0.10
 768165,-0.11721556,-0.00136897,0.03083804,-0.01190709,-0.00046580,-0.0
 0215575,-0.00517513,0.00011442,-0.00037633,-0.00062408,0.00000728,-0.0
 0288693,-0.00091211,0.00009203,0.00075272,0.00088899,-0.00003145,-0.11
 964609,0.12260401,0.00040984,-0.00035532,-0.00115250,0.00332759,-0.001
 38513,-0.02959006,-0.00017633,0.00008338,-0.00008638,0.00013139,0.0000
 8650,0.00891937,-0.00002001,0.00000906,-0.00044027,0.00018868,0.000129
 27,0.00668531,-0.00006717,-0.00000677,-0.00248487,-0.00371174,0.001510
 06,0.02321024,0.00275488,0.00015367,0.00008229,0.00088158,0.00166858,-
 0.00005530,-0.25862339,-0.11132346,0.00462677,-0.01991044,-0.01777579,
 0.00047940,-0.00332103,0.00465156,0.00011971,-0.00028716,0.00099255,-0
 .00000508,-0.00012450,0.00008223,0.00002238,0.00140941,-0.00066786,-0.
 00009108,0.27659037,0.00219340,-0.00472319,0.00002769,-0.03057735,-0.0
 1316741,0.00058920,-0.11044330,-0.11748922,0.00240565,0.01301321,0.008
 88773,-0.00025972,0.00281924,-0.00084257,-0.00001578,0.00075505,-0.000
 63572,-0.00001078,-0.00132869,-0.00075528,0.00003413,0.00049454,0.0010
 0270,-0.00003609,0.12231531,0.12558407,0.00006889,0.00006463,0.0075668
 9,0.00012261,0.00003431,-0.00172602,0.00461948,0.00242136,-0.02509150,
 0.00031253,0.00026701,0.00226713,0.00013015,-0.00004689,0.00512878,-0.
 00000218,-0.00001526,-0.00024745,0.00003092,0.00000956,0.00119777,-0.0
 0009798,-0.00001647,-0.00411779,-0.00510303,-0.00268805,0.01885140,0.0
 0272745,-0.00082363,0.00003034,-0.00042057,-0.00123986,0.00002297,-0.0
 0244773,-0.00386411,0.00014616,-0.01856099,0.01484799,0.00032185,-0.27
 213956,0.11358822,0.00359122,0.00066564,0.00161256,0.00000957,0.000055
 55,-0.00010005,0.00004432,-0.00006453,0.00008506,-0.00001796,-0.001264
 21,0.00070593,-0.00000793,0.29123673,-0.00247604,-0.00495518,0.0000910
 3,-0.00063494,-0.00049616,0.00001651,-0.00286846,-0.00128534,0.0000825
 5,-0.01413471,0.00998374,0.00021708,0.10993746,-0.11445463,-0.00145587
 ,0.02988762,-0.01247938,-0.00044141,0.00154559,-0.00078435,-0.00000774
 ,0.00011127,0.00005483,-0.00000812,-0.00088434,0.00049584,0.00000429,-
 0.12211749,0.12140142,0.00004209,0.00006469,0.00419963,0.00001767,0.00
 002543,0.00049436,0.00013956,0.00010128,0.00472931,0.00047718,-0.00029
 134,0.00463585,0.00361609,-0.00152085,-0.03040030,-0.00014480,0.000052
 56,0.00170100,0.00003398,0.00001973,0.00257389,-0.00001768,-0.00000766
 ,-0.00106141,0.00000106,-0.00002321,-0.00148928,-0.00403744,0.00157946
 ,0.02115970,0.,0.,0.,0.,0.,0.,0.,0.,0.,0.,0.,0.,0.,0.,0.,0.,0.,0.,0.,0
 .,0.,0.,0.,0.,0.,0.,0.,0.,0.,0.,0.,0.,0.,0.,0.,0.,0.,0.,0.,0.,0.,0.,0.
 ,0.,0.,0.,0.,0.,0.,0.,0.,0.,0.,0.,0.,0.,0.,0.,0.,0.,0.,0.,0.,0.,0.,0.,
 0.,0.,0.,0.,0.,0.,0.,0.,0.,0.,0.,0.,0.,0.,0.,0.,0.,0.,0.,0.,0.,0.,0.,0
 .,0.,0.,0.,0.,0.,0.,0.00075812,-0.00002071,-0.00001161,0.00019554,-0.0
 0064874,-0.00002313,0.00056609,0.00141956,-0.00007225,0.00066363,0.001
 94601,-0.00004507,0.00095333,-0.00037203,0.00008015,-0.00054237,0.0004
 2009,0.00004058,0.00005312,-0.00004637,-0.00000058,0.00005382,-0.00014
 196,0.00000139,0.00060420,-0.00052056,-0.00000048,0.00041458,0.0002911
 0,-0.00002208,0.,0.,0.,0.26672918,0.00053478,-0.00002781,-0.00000817,0
 .00019288,-0.00020324,-0.00001005,-0.00206706,0.00174366,0.00000893,-0
 .02817294,-0.01244071,0.00054610,0.00239623,-0.00527606,0.00001803,-0.
 00208968,0.00011136,0.00004627,0.00007816,-0.00002506,-0.00000133,0.00
 005251,-0.00007563,0.00000004,0.00118256,0.00007169,-0.00001850,-0.000
 25095,0.00009382,-0.00000035,0.,0.,0.,0.13557325,0.13654688,-0.0000137
 5,0.00000025,0.00007448,-0.00002829,0.00000445,-0.00136232,-0.00005137
 ,-0.00005234,-0.00316621,0.00012287,0.00003204,-0.00130938,0.00006486,
 0.00006618,0.00549657,0.00005413,0.00000346,0.00192993,-0.00000097,0.0
 0000104,0.00001291,0.00000040,0.00000325,0.00008861,-0.00001001,0.0000
 1068,0.00041920,-0.00001940,-0.00000964,-0.00075885,0.,0.,0.,-0.005182
 94,-0.00303717,0.00938442,0.00052041,0.00000746,-0.00000860,-0.0004166
 0,-0.00051988,0.00005331,0.00110257,0.00050312,0.00006923,-0.00003298,
 -0.00152600,-0.00002007,0.00046086,-0.00161548,-0.00005974,0.00050883,
 0.00070282,-0.00003193,0.00004952,0.00004534,-0.00000185,-0.00001278,0
 .00008922,-0.00000874,0.00038048,-0.00026510,-0.00001957,0.00052619,0.
 00053631,-0.00000409,0.,0.,0.,-0.01693083,0.01241426,0.00018399,0.2765
 0316,-0.00038502,0.00000981,0.00000709,0.00201507,0.00018719,-0.000021
 66,-0.00259022,-0.00516341,0.00010211,0.02868128,-0.01192119,-0.000441
 06,0.00206220,0.00184629,-0.00006517,-0.00048642,-0.00031240,0.0000040
 1,-0.00006875,-0.00001588,0.00000086,0.00010281,-0.00056779,-0.0000013
 9,0.00037133,0.00010715,-0.00001169,-0.00107159,-0.00000020,0.00002118
 ,0.,0.,0.,-0.01345115,0.00880441,0.00017141,-0.13172147,0.12839208,-0.
 00000736,-0.00000094,0.00002696,0.00003966,0.00002337,0.00251481,0.000
 08647,0.00004836,0.00523649,-0.00018863,0.00008830,-0.00169327,-0.0000
 8165,-0.00000257,-0.00351099,-0.00002488,-0.00001661,-0.00109661,-0.00
 000151,-0.00000092,-0.00005084,-0.00000885,-0.00000081,-0.00048690,-0.
 00002284,-0.00000059,-0.00084343,0.00000513,-0.00000707,0.00045480,0.,
 0.,0.,0.00032356,-0.00027551,-0.00240865,-0.00390039,0.00162677,0.0095
 3341,-0.03761490,-0.00817017,0.00063275,-0.00042671,0.00853480,0.00006
 719,-0.00030007,0.00201518,-0.00002187,0.00507577,0.00033101,0.0000803
 3,-0.00053972,-0.03055859,0.00014911,-0.16715175,-0.03095528,0.0017362
 9,0.00167669,-0.00119441,-0.00006510,0.00014823,-0.00079951,0.00001837
 ,0.00029919,0.00041325,-0.00002828,-0.00182698,0.00476072,-0.00007897,
 0.,0.,0.,0.00025059,0.00063871,-0.00001716,-0.00064560,0.00072534,0.00
 000989,0.88933228,0.00396120,0.01689778,-0.00017078,0.00854127,-0.0000
 9366,-0.00011766,0.00006595,-0.00167533,0.00000317,0.00145193,-0.00597
 494,0.00006040,-0.03205378,-0.02716802,0.00069681,-0.05214907,-0.11507
 290,0.00110938,0.00302783,-0.00310836,-0.00005426,0.00193714,0.0005000
 8,-0.00002958,0.00050722,-0.00016033,-0.00001438,-0.00049202,-0.001613
 62,-0.00000966,0.,0.,0.,0.00040318,-0.00003757,-0.00000930,-0.00007617
 ,0.00000789,0.00000195,-0.09114290,0.55938558,0.00055607,0.00002853,-0
 .00381561,0.00007093,-0.00011215,0.00629680,-0.00001109,-0.00003211,-0
 .00092655,0.00006943,0.00008002,0.00965548,0.00015529,0.00067362,-0.00
 164096,0.00186566,0.00074420,-0.07672685,-0.00008685,0.00002574,-0.002
 38361,0.00000267,0.00001646,0.00091767,-0.00002787,-0.00001278,-0.0011
 6263,-0.00005010,-0.00009978,-0.00484097,0.,0.,0.,-0.00001612,-0.00001
 401,-0.00055822,0.00001412,-0.00001182,0.00014436,-0.01123618,-0.00034
 887,0.21278838,0.00422438,-0.01019239,0.00004800,-0.00406110,-0.001100
 28,0.00005545,0.00107117,0.00013561,-0.00001626,-0.00019440,0.00119403
 ,-0.00002234,-0.00165773,0.01206028,-0.00001647,-0.06089768,0.00614353
 ,0.00135482,0.00027071,0.00061205,-0.00000442,-0.00119716,-0.00020325,
 0.00001365,-0.00032064,-0.00029567,0.00001150,-0.00026212,-0.00230043,
 0.00001709,0.,0.,0.,-0.00021297,-0.00042001,0.00000689,0.00040280,-0.0
 0043170,-0.00000633,-0.56735649,0.18941050,0.00742008,0.64291419,-0.00
 424330,-0.00199935,0.00010066,-0.00058653,0.00242209,-0.00000849,-0.00
 038189,-0.00049822,0.00001003,0.00029549,0.00265026,-0.00002488,-0.002
 67365,-0.00547261,0.00008213,-0.00085991,0.01846109,0.00002166,-0.0009
 1670,0.00084040,0.00001471,-0.00036954,-0.00010142,0.00000424,-0.00026
 789,0.00015275,0.00000485,-0.00252486,0.00190178,0.00003356,0.,0.,0.,-
 0.00013959,-0.00004826,0.00000315,-0.00005415,0.00012624,-0.00000029,0
 .19419864,-0.19878573,-0.00270409,-0.26232711,0.24342610,0.00001567,0.
 00020802,0.00369253,0.00005181,-0.00000106,-0.00123088,-0.00001347,0.0
 0000151,0.00016423,-0.00001624,-0.00004110,-0.00105897,0.00006539,-0.0
 0017247,0.00124640,0.00139182,-0.00010295,0.01927463,0.00000473,-0.000
 01403,0.00024843,0.00001514,0.00000157,-0.00044397,0.00001099,0.000005
 59,0.00023085,0.00001845,0.00002958,0.00000136,0.,0.,0.,0.00000579,0.0
 0000798,0.00007758,-0.00000832,0.00000627,-0.00009423,0.00739312,-0.00
 261839,-0.07922841,-0.00910709,0.00338662,0.03395991,-0.00494218,-0.00
 229326,0.00012326,0.00195074,0.00025348,-0.00004627,0.00002726,-0.0014
 9944,0.00000704,-0.00022525,-0.00015239,-0.00000857,-0.00658211,-0.000
 10600,0.00014772,0.00302180,-0.03479885,0.00034200,-0.00254818,-0.0028
 1395,0.00006609,-0.00016237,0.00012997,0.00000158,-0.00005608,-0.00020
 553,0.00000430,0.00035884,-0.00070739,-0.00000078,0.,0.,0.,-0.00002554
 ,-0.00023851,0.00000293,0.00013694,-0.00014385,-0.00000229,-0.12126273
 ,-0.02197512,0.00112231,-0.00640153,0.07411349,0.00020830,0.58543828,0
 .00105760,-0.00227401,-0.00000454,-0.00078185,-0.00103815,0.00001856,-
 0.00024909,-0.00077601,0.00000829,-0.00156937,0.00113221,0.00001552,-0
 .00449919,0.00636232,0.00005382,-0.01035051,-0.03942292,0.00046631,-0.
 00210614,0.00094423,0.00003651,-0.00062467,0.00010351,0.00000940,-0.00
 036384,-0.00003011,0.00000718,0.00072027,0.00112221,-0.00001739,0.,0.,
 0.,-0.00025045,-0.00033629,0.00000665,0.00015555,-0.00008934,-0.000002
 48,0.01020366,-0.19519308,0.00055219,0.06362560,-0.07117925,-0.0005450
 5,0.08625041,0.38046476,0.00010444,0.00005853,0.00137417,-0.00004155,-
 0.00000224,-0.00067174,0.00000083,0.00003026,-0.00001545,-0.00000025,-
 0.00000778,-0.00074348,0.00017292,-0.00002276,0.00190996,0.00020365,0.
 00088810,0.01157788,0.00006321,0.00004600,0.00039759,0.00000578,-0.000
 00291,-0.00003057,0.00000512,0.00000445,0.00012421,-0.00000869,0.00000
 646,0.00008873,0.,0.,0.,0.00000289,0.00000636,0.00006162,-0.00000381,0
 .00000280,-0.00003282,0.00094234,0.00111933,-0.06389303,0.00026702,-0.
 00072583,0.02938666,-0.01011143,-0.00344725,0.03423312,0.00012116,0.00
 034049,-0.00000906,0.00008016,0.00001239,0.00000423,-0.00000675,0.0000
 1407,0.00000168,0.00034976,-0.00016017,-0.00001337,-0.00040008,-0.0000
 6108,0.00002169,0.00235756,0.00111896,0.00000975,0.00014419,-0.0002619
 2,-0.00000785,-0.00002247,-0.00000405,0.00000062,-0.00000336,-0.000012
 17,-0.00000111,0.00005331,-0.00005393,0.00000225,0.,0.,0.,0.00000443,-
 0.00001752,0.00000057,-0.00000391,0.00000811,0.00000039,-0.00128532,-0
 .01230681,0.00017943,-0.00438240,0.00645872,-0.00006966,-0.44870592,-0
 .14100765,0.00839698,0.45180560,0.00116674,0.00020978,-0.00002355,-0.0
 0010116,0.00022138,0.00000244,0.00007817,0.00018902,-0.00000185,0.0004
 0167,-0.00088080,-0.00000467,-0.00183989,-0.00033183,0.00003816,0.0045
 9193,-0.00604799,-0.00002759,-0.00016409,0.00045945,-0.00000141,0.0000
 6122,-0.00002802,-0.00000083,0.00004196,0.00005082,-0.00000143,0.00005
 791,-0.00020396,0.00000100,0.,0.,0.,0.00003477,-0.00002946,-0.00000021
 ,-0.00000192,0.00000829,0.00000011,-0.06136635,-0.02835470,0.00125706,
 0.00583552,0.00853835,-0.00018527,-0.09463457,-0.07910215,0.00202244,0
 .14596050,0.10508939,-0.00001395,-0.00000889,-0.00028774,0.00000499,0.
 00000041,0.00032209,0.00000122,-0.00000087,0.00009402,-0.00001661,0.00
 000512,-0.00047640,0.00003146,0.00000698,0.00082503,-0.00001026,0.0000
 3221,0.00326574,-0.00000834,0.00000013,-0.00037561,0.00000024,0.000000
 24,0.00001118,-0.00000138,-0.00000046,-0.00006971,0.00000165,0.0000030
 0,0.00016628,0.,0.,0.,0.00000030,0.00000066,0.00003307,0.00000044,-0.0
 0000007,0.00002066,0.00045588,0.00039866,0.00510517,-0.00006735,-0.000
 19611,-0.00632472,0.00813765,0.00283497,-0.01371417,-0.00851670,-0.003
 07470,0.01150998\\-0.00001057,0.00000251,0.00001667,0.00000703,0.00001
 465,-0.00000637,0.00000303,-0.00001484,0.00000041,-0.00001464,0.000000
 11,-0.00000029,0.00000862,0.00001670,-0.00000170,0.00002309,-0.0000150
 2,-0.00000238,-0.00000048,0.00000189,-0.00000990,-0.00000238,-0.000001
 34,0.00000359,-0.00000186,0.00000093,0.00000111,-0.00000084,-0.0000011
 7,0.00000351,0.,0.,0.,0.00000236,-0.00000786,0.00000074,-0.00000048,-0
 .00000578,0.00000118,-0.00001347,0.00001022,-0.00000745,-0.00001149,0.
 00000379,0.00000239,-0.00000231,-0.00002031,-0.00000051,-0.00000091,0.
 00000434,0.00000361\\\@


 FRICTION IS A DRAG,
 AND ENTROPY AIN'T WHAT IT USED TO BE.
 Job cpu time:       0 days  0 hours 26 minutes 19.8 seconds.
 Elapsed time:       0 days  0 hours 26 minutes 22.0 seconds.
 File lengths (MBytes):  RWF=    179 Int=      0 D2E=      0 Chk=     11 Scr=      1
 Normal termination of Gaussian 16 at Mon Jan 20 15:49:13 2025.
