 Entering Gaussian System, Link 0=g16
 Initial command:
 /sw/cluster/pub/apps//g16/l1.exe "/data/mmaximo/28010/Gau-2486627.inp" -scrdir="/data/mmaximo/28010/"
 Entering Link 1 = /sw/cluster/pub/apps//g16/l1.exe PID=   2486628.
  
 Copyright (c) 1988,1990,1992,1993,1995,1998,2003,2009,2016,
            Gaussian, Inc.  All Rights Reserved.
  
 This is part of the Gaussian(R) 16 program.  It is based on
 the Gaussian(R) 09 system (copyright 2009, Gaussian, Inc.),
 the Gaussian(R) 03 system (copyright 2003, Gaussian, Inc.),
 the Gaussian(R) 98 system (copyright 1998, Gaussian, Inc.),
 the Gaussian(R) 94 system (copyright 1995, Gaussian, Inc.),
 the Gaussian 92(TM) system (copyright 1992, Gaussian, Inc.),
 the Gaussian 90(TM) system (copyright 1990, Gaussian, Inc.),
 the Gaussian 88(TM) system (copyright 1988, Gaussian, Inc.),
 the Gaussian 86(TM) system (copyright 1986, Carnegie Mellon
 University), and the Gaussian 82(TM) system (copyright 1983,
 Carnegie Mellon University). Gaussian is a federally registered
 trademark of Gaussian, Inc.
  
 This software contains proprietary and confidential information,
 including trade secrets, belonging to Gaussian, Inc.
  
 This software is provided under written license and may be
 used, copied, transmitted, or stored only in accord with that
 written license.
  
 The following legend is applicable only to US Government
 contracts under FAR:
  
                    RESTRICTED RIGHTS LEGEND
  
 Use, reproduction and disclosure by the US Government is
 subject to restrictions as set forth in subparagraphs (a)
 and (c) of the Commercial Computer Software - Restricted
 Rights clause in FAR 52.227-19.
  
 Gaussian, Inc.
 340 Quinnipiac St., Bldg. 40, Wallingford CT 06492
  
  
 ---------------------------------------------------------------
 Warning -- This program may not be used in any manner that
 competes with the business of Gaussian, Inc. or will provide
 assistance to any competitor of Gaussian, Inc.  The licensee
 of this program is prohibited from giving any competitor of
 Gaussian, Inc. access to this program.  By using this program,
 the user acknowledges that Gaussian, Inc. is engaged in the
 business of creating and licensing software in the field of
 computational chemistry and represents and warrants to the
 licensee that it is not a competitor of Gaussian, Inc. and that
 it will not use this program in any manner prohibited above.
 ---------------------------------------------------------------
  

 Cite this work as:
 Gaussian 16, Revision A.03,
 M. J. Frisch, G. W. Trucks, H. B. Schlegel, G. E. Scuseria, 
 M. A. Robb, J. R. Cheeseman, G. Scalmani, V. Barone, 
 G. A. Petersson, H. Nakatsuji, X. Li, M. Caricato, A. V. Marenich, 
 J. Bloino, B. G. Janesko, R. Gomperts, B. Mennucci, H. P. Hratchian, 
 J. V. Ortiz, A. F. Izmaylov, J. L. Sonnenberg, D. Williams-Young, 
 F. Ding, F. Lipparini, F. Egidi, J. Goings, B. Peng, A. Petrone, 
 T. Henderson, D. Ranasinghe, V. G. Zakrzewski, J. Gao, N. Rega, 
 G. Zheng, W. Liang, M. Hada, M. Ehara, K. Toyota, R. Fukuda, 
 J. Hasegawa, M. Ishida, T. Nakajima, Y. Honda, O. Kitao, H. Nakai, 
 T. Vreven, K. Throssell, J. A. Montgomery, Jr., J. E. Peralta, 
 F. Ogliaro, M. J. Bearpark, J. J. Heyd, E. N. Brothers, K. N. Kudin, 
 V. N. Staroverov, T. A. Keith, R. Kobayashi, J. Normand, 
 K. Raghavachari, A. P. Rendell, J. C. Burant, S. S. Iyengar, 
 J. Tomasi, M. Cossi, J. M. Millam, M. Klene, C. Adamo, R. Cammi, 
 J. W. Ochterski, R. L. Martin, K. Morokuma, O. Farkas, 
 J. B. Foresman, and D. J. Fox, Gaussian, Inc., Wallingford CT, 2016.
 
 ******************************************
 Gaussian 16:  ES64L-G16RevA.03 25-Dec-2016
                20-Jan-2025 
 ******************************************
 %chk=C6H5O+.chk
 -------------------------
 # opt freq b3lyp def2tzvp
 -------------------------
 1/18=20,19=15,26=3,38=1/1,3;
 2/9=110,12=2,17=6,18=5,40=1/2;
 3/5=44,7=101,11=2,25=1,30=1,71=1,74=-5/1,2,3;
 4//1;
 5/5=2,38=5/2;
 6/7=2,8=2,9=2,10=2,28=1/1;
 7//1,2,3,16;
 1/18=20,19=15,26=3/3(2);
 2/9=110/2;
 99//99;
 2/9=110/2;
 3/5=44,7=101,11=2,25=1,30=1,71=1,74=-5/1,2,3;
 4/5=5,16=3,69=1/1;
 5/5=2,38=5/2;
 7//1,2,3,16;
 1/18=20,19=15,26=3/3(-5);
 2/9=110/2;
 6/7=2,8=2,9=2,10=2,19=2,28=1/1;
 99/9=1/99;
 ---
 opt
 ---
 Symbolic Z-matrix:
 Charge =  1 Multiplicity = 1
 C                     0.03077  -1.74118   0.04029 
 C                     1.25701  -1.03377   0.02507 
 C                     1.28823   0.3216    0.00153 
 C                    -0.03221   1.08653  -0.00851 
 C                    -1.31729   0.2637    0.00886 
 C                    -1.22576  -1.08895   0.03205 
 H                     2.17737  -1.57948   0.03229 
 H                     2.22136   0.84508  -0.0098 
 H                    -2.2728    0.74522   0.00284 
 H                    -2.12091  -1.67499   0.04437 
 O                    -0.06022   2.34443  -0.03022 
 C                     0.06505  -3.28057   0.06686 
 O                    -1.01048  -3.93373   0.08077 
 O                     1.31907  -3.96778   0.07571 
 H                     1.22188  -4.81665  -0.36198 
 

 GradGradGradGradGradGradGradGradGradGradGradGradGradGradGradGradGradGrad
 Berny optimization.
 Initialization pass.
                           ----------------------------
                           !    Initial Parameters    !
                           ! (Angstroms and Degrees)  !
 --------------------------                            --------------------------
 ! Name  Definition              Value          Derivative Info.                !
 --------------------------------------------------------------------------------
 ! R1    R(1,2)                  1.4157         estimate D2E/DX2                !
 ! R2    R(1,6)                  1.4157         estimate D2E/DX2                !
 ! R3    R(1,12)                 1.54           estimate D2E/DX2                !
 ! R4    R(2,3)                  1.3559         estimate D2E/DX2                !
 ! R5    R(2,7)                  1.07           estimate D2E/DX2                !
 ! R6    R(3,4)                  1.526          estimate D2E/DX2                !
 ! R7    R(3,8)                  1.07           estimate D2E/DX2                !
 ! R8    R(4,5)                  1.526          estimate D2E/DX2                !
 ! R9    R(4,11)                 1.2584         estimate D2E/DX2                !
 ! R10   R(5,6)                  1.3559         estimate D2E/DX2                !
 ! R11   R(5,9)                  1.07           estimate D2E/DX2                !
 ! R12   R(6,10)                 1.07           estimate D2E/DX2                !
 ! R13   R(12,13)                1.2584         estimate D2E/DX2                !
 ! R14   R(12,14)                1.43           estimate D2E/DX2                !
 ! R15   R(14,15)                0.96           estimate D2E/DX2                !
 ! A1    A(2,1,6)              122.5798         estimate D2E/DX2                !
 ! A2    A(2,1,12)             118.7101         estimate D2E/DX2                !
 ! A3    A(6,1,12)             118.7101         estimate D2E/DX2                !
 ! A4    A(1,2,3)              121.3051         estimate D2E/DX2                !
 ! A5    A(1,2,7)              119.3475         estimate D2E/DX2                !
 ! A6    A(3,2,7)              119.3475         estimate D2E/DX2                !
 ! A7    A(2,3,4)              118.7662         estimate D2E/DX2                !
 ! A8    A(2,3,8)              120.6169         estimate D2E/DX2                !
 ! A9    A(4,3,8)              120.6169         estimate D2E/DX2                !
 ! A10   A(3,4,5)              117.2777         estimate D2E/DX2                !
 ! A11   A(3,4,11)             121.3612         estimate D2E/DX2                !
 ! A12   A(5,4,11)             121.3612         estimate D2E/DX2                !
 ! A13   A(4,5,6)              118.7662         estimate D2E/DX2                !
 ! A14   A(4,5,9)              120.6169         estimate D2E/DX2                !
 ! A15   A(6,5,9)              120.6169         estimate D2E/DX2                !
 ! A16   A(1,6,5)              121.3051         estimate D2E/DX2                !
 ! A17   A(1,6,10)             119.3475         estimate D2E/DX2                !
 ! A18   A(5,6,10)             119.3475         estimate D2E/DX2                !
 ! A19   A(1,12,13)            120.0            estimate D2E/DX2                !
 ! A20   A(1,12,14)            120.0            estimate D2E/DX2                !
 ! A21   A(13,12,14)           120.0            estimate D2E/DX2                !
 ! A22   A(12,14,15)           109.4712         estimate D2E/DX2                !
 ! D1    D(6,1,2,3)             -0.0003         estimate D2E/DX2                !
 ! D2    D(6,1,2,7)            179.9998         estimate D2E/DX2                !
 ! D3    D(12,1,2,3)           179.9997         estimate D2E/DX2                !
 ! D4    D(12,1,2,7)            -0.0002         estimate D2E/DX2                !
 ! D5    D(2,1,6,5)              0.0002         estimate D2E/DX2                !
 ! D6    D(2,1,6,10)          -179.9998         estimate D2E/DX2                !
 ! D7    D(12,1,6,5)          -179.9998         estimate D2E/DX2                !
 ! D8    D(12,1,6,10)            0.0002         estimate D2E/DX2                !
 ! D9    D(2,1,12,13)         -179.9999         estimate D2E/DX2                !
 ! D10   D(2,1,12,14)            0.0            estimate D2E/DX2                !
 ! D11   D(6,1,12,13)            0.0001         estimate D2E/DX2                !
 ! D12   D(6,1,12,14)         -180.0            estimate D2E/DX2                !
 ! D13   D(1,2,3,4)              0.0001         estimate D2E/DX2                !
 ! D14   D(1,2,3,8)           -179.9999         estimate D2E/DX2                !
 ! D15   D(7,2,3,4)           -179.9999         estimate D2E/DX2                !
 ! D16   D(7,2,3,8)              0.0001         estimate D2E/DX2                !
 ! D17   D(2,3,4,5)              0.0001         estimate D2E/DX2                !
 ! D18   D(2,3,4,11)           180.0            estimate D2E/DX2                !
 ! D19   D(8,3,4,5)           -179.9999         estimate D2E/DX2                !
 ! D20   D(8,3,4,11)            -0.0001         estimate D2E/DX2                !
 ! D21   D(3,4,5,6)             -0.0002         estimate D2E/DX2                !
 ! D22   D(3,4,5,9)           -179.9999         estimate D2E/DX2                !
 ! D23   D(11,4,5,6)          -180.0            estimate D2E/DX2                !
 ! D24   D(11,4,5,9)             0.0003         estimate D2E/DX2                !
 ! D25   D(4,5,6,1)              0.0            estimate D2E/DX2                !
 ! D26   D(4,5,6,10)          -180.0            estimate D2E/DX2                !
 ! D27   D(9,5,6,1)            179.9997         estimate D2E/DX2                !
 ! D28   D(9,5,6,10)            -0.0002         estimate D2E/DX2                !
 ! D29   D(1,12,14,15)        -150.0            estimate D2E/DX2                !
 ! D30   D(13,12,14,15)         30.0            estimate D2E/DX2                !
 --------------------------------------------------------------------------------
 Trust Radius=3.00D-01 FncErr=1.00D-07 GrdErr=1.00D-06 EigMax=2.50D+02 EigMin=1.00D-04
 Number of steps in this run=     77 maximum allowed number of steps=    100.
 GradGradGradGradGradGradGradGradGradGradGradGradGradGradGradGradGradGrad

                          Input orientation:                          
 ---------------------------------------------------------------------
 Center     Atomic      Atomic             Coordinates (Angstroms)
 Number     Number       Type             X           Y           Z
 ---------------------------------------------------------------------
      1          6           0        0.030765   -1.741184    0.040294
      2          6           0        1.257010   -1.033775    0.025072
      3          6           0        1.288231    0.321602    0.001530
      4          6           0       -0.032208    1.086533   -0.008509
      5          6           0       -1.317287    0.263704    0.008858
      6          6           0       -1.225759   -1.088945    0.032054
      7          1           0        2.177365   -1.579480    0.032288
      8          1           0        2.221365    0.845083   -0.009797
      9          1           0       -2.272802    0.745216    0.002839
     10          1           0       -2.120910   -1.674993    0.044374
     11          8           0       -0.060221    2.344433   -0.030219
     12          6           0        0.065047   -3.280573    0.066857
     13          8           0       -1.010479   -3.933735    0.080772
     14          8           0        1.319070   -3.967777    0.075709
     15          1           0        1.221883   -4.816649   -0.361980
 ---------------------------------------------------------------------
                    Distance matrix (angstroms):
                    1          2          3          4          5
     1  C    0.000000
     2  C    1.415746   0.000000
     3  C    2.416155   1.355941   0.000000
     4  C    2.828839   2.481716   1.526033   0.000000
     5  C    2.416155   2.882831   2.606171   1.526033   0.000000
     6  C    1.415746   2.483391   2.882831   2.481716   1.355941
     7  H    2.152697   1.070000   2.098956   3.462875   3.951008
     8  H    3.389692   2.112180   1.070000   2.266470   3.586141
     9  H    3.389692   3.952831   3.586141   2.266470   1.070000
    10  H    2.152697   3.438296   3.951008   3.462875   2.098956
    11  O    4.087239   3.626354   2.431291   1.258400   2.431291
    12  C    1.540000   2.543742   3.804748   4.368839   3.804748
    13  O    2.427572   3.681627   4.837172   5.115473   4.209250
    14  O    2.572683   2.935095   4.290131   5.232503   4.986008
    15  H    3.322510   3.802786   5.151521   6.045266   5.691651
                    6          7          8          9         10
     6  C    0.000000
     7  H    3.438296   0.000000
     8  H    3.952831   2.425327   0.000000
     9  H    2.112180   5.020863   4.495294   0.000000
    10  H    1.070000   4.299353   5.020863   2.425327   0.000000
    11  O    3.626354   4.517499   2.730220   2.730220   4.517499
    12  C    2.543742   2.712342   4.655816   4.655816   2.712342
    13  O    2.853339   3.963233   5.769759   4.846866   2.517199
    14  O    3.842620   2.538212   4.897456   5.926142   4.134162
    15  H    4.476828   3.398184   5.760053   6.578774   4.605365
                   11         12         13         14         15
    11  O    0.000000
    12  C    5.627239   0.000000
    13  O    6.350646   1.258400   0.000000
    14  O    6.462017   1.430000   2.329803   0.000000
    15  H    7.282511   1.970203   2.441108   0.960000   0.000000
 Stoichiometry    C7H5O3(1+)
 Framework group  C1[X(C7H5O3)]
 Deg. of freedom    39
 Full point group                 C1      NOp   1
 Largest Abelian subgroup         C1      NOp   1
 Largest concise Abelian subgroup C1      NOp   1
                         Standard orientation:                         
 ---------------------------------------------------------------------
 Center     Atomic      Atomic             Coordinates (Angstroms)
 Number     Number       Type             X           Y           Z
 ---------------------------------------------------------------------
      1          6           0        0.559469    0.051098   -0.008932
      2          6           0       -0.079300   -1.212348   -0.012568
      3          6           0       -1.431071   -1.318408   -0.006297
      4          6           0       -2.267795   -0.042263    0.004882
      5          6           0       -1.517012    1.286304    0.008301
      6          6           0       -0.161192    1.269654    0.001343
      7          1           0        0.516428   -2.101138   -0.020421
      8          1           0       -1.902340   -2.279032   -0.009134
      9          1           0       -2.050577    2.213746    0.016049
     10          1           0        0.374653    2.195810    0.003663
     11          8           0       -3.525494   -0.083795    0.011026
     12          6           0        2.098612    0.101923   -0.016446
     13          8           0        2.691524    1.211886   -0.013411
     14          8           0        2.854052   -1.112202   -0.026874
     15          1           0        3.690913   -0.972254    0.422212
 ---------------------------------------------------------------------
 Rotational constants (GHZ):           3.5625897           0.7919818           0.6482719
 Standard basis: def2TZVP (5D, 7F)
 There are   390 symmetry adapted cartesian basis functions of A   symmetry.
 There are   340 symmetry adapted basis functions of A   symmetry.
   340 basis functions,   550 primitive gaussians,   390 cartesian basis functions
    35 alpha electrons       35 beta electrons
       nuclear repulsion energy       465.5184362378 Hartrees.
 NAtoms=   15 NActive=   15 NUniq=   15 SFac= 1.00D+00 NAtFMM=   60 NAOKFM=F Big=F
 Integral buffers will be    131072 words long.
 Raffenetti 2 integral format.
 Two-electron integral symmetry is turned on.
 One-electron integrals computed using PRISM.
   1 Symmetry operations used in ECPInt.
 ECPInt:  NShTT=    8515 NPrTT=   26800 LenC2=    8089 LenP2D=   19685.
 LDataN:  DoStor=T MaxTD1= 6 Len=  172
 NBasis=   340 RedAO= T EigKep=  1.29D-05  NBF=   340
 NBsUse=   340 1.00D-06 EigRej= -1.00D+00 NBFU=   340
 ExpMin= 9.52D-02 ExpMax= 2.70D+04 ExpMxC= 9.22D+02 IAcc=3 IRadAn=         5 AccDes= 0.00D+00
 Harris functional with IExCor=  402 and IRadAn=       5 diagonalized for initial guess.
 HarFok:  IExCor=  402 AccDes= 0.00D+00 IRadAn=         5 IDoV= 1 UseB2=F ITyADJ=14
 ICtDFT=  3500011 ScaDFX=  1.000000  1.000000  1.000000  1.000000
 FoFCou: FMM=F IPFlag=           0 FMFlag=      100000 FMFlg1=           0
         NFxFlg=           0 DoJE=T BraDBF=F KetDBF=T FulRan=T
         wScrn=  0.000000 ICntrl=       500 IOpCl=  0 I1Cent=   200000004 NGrid=           0
         NMat0=    1 NMatS0=      1 NMatT0=    0 NMatD0=    1 NMtDS0=    0 NMtDT0=    0
 Petite list used in FoFCou.
 Requested convergence on RMS density matrix=1.00D-08 within 128 cycles.
 Requested convergence on MAX density matrix=1.00D-06.
 Requested convergence on             energy=1.00D-06.
 No special actions if energy rises.
 Integral accuracy reduced to 1.0D-05 until final iterations.
 EnCoef did     2 forward-backward iterations
 EnCoef did     2 forward-backward iterations
 Problem detected with inexpensive integrals.
 Switching to full accuracy and repeating last cycle.
 EnCoef did     2 forward-backward iterations
 EnCoef did   100 forward-backward iterations
 EnCoef did     2 forward-backward iterations
 EnCoef did     2 forward-backward iterations
 EnCoef did     3 forward-backward iterations
 SCF Done:  E(RB3LYP) =  -495.250415816     A.U. after   23 cycles
            NFock= 23  Conv=0.63D-08     -V/T= 2.0059

 **********************************************************************

            Population analysis using the SCF density.

 **********************************************************************

 Orbital symmetries:
       Occupied  (A) (A) (A) (A) (A) (A) (A) (A) (A) (A) (A) (A)
                 (A) (A) (A) (A) (A) (A) (A) (A) (A) (A) (A) (A)
                 (A) (A) (A) (A) (A) (A) (A) (A) (A) (A) (A)
       Virtual   (A) (A) (A) (A) (A) (A) (A) (A) (A) (A) (A) (A)
                 (A) (A) (A) (A) (A) (A) (A) (A) (A) (A) (A) (A)
                 (A) (A) (A) (A) (A) (A) (A) (A) (A) (A) (A) (A)
                 (A) (A) (A) (A) (A) (A) (A) (A) (A) (A) (A) (A)
                 (A) (A) (A) (A) (A) (A) (A) (A) (A) (A) (A) (A)
                 (A) (A) (A) (A) (A) (A) (A) (A) (A) (A) (A) (A)
                 (A) (A) (A) (A) (A) (A) (A) (A) (A) (A) (A) (A)
                 (A) (A) (A) (A) (A) (A) (A) (A) (A) (A) (A) (A)
                 (A) (A) (A) (A) (A) (A) (A) (A) (A) (A) (A) (A)
                 (A) (A) (A) (A) (A) (A) (A) (A) (A) (A) (A) (A)
                 (A) (A) (A) (A) (A) (A) (A) (A) (A) (A) (A) (A)
                 (A) (A) (A) (A) (A) (A) (A) (A) (A) (A) (A) (A)
                 (A) (A) (A) (A) (A) (A) (A) (A) (A) (A) (A) (A)
                 (A) (A) (A) (A) (A) (A) (A) (A) (A) (A) (A) (A)
                 (A) (A) (A) (A) (A) (A) (A) (A) (A) (A) (A) (A)
                 (A) (A) (A) (A) (A) (A) (A) (A) (A) (A) (A) (A)
                 (A) (A) (A) (A) (A) (A) (A) (A) (A) (A) (A) (A)
                 (A) (A) (A) (A) (A) (A) (A) (A) (A) (A) (A) (A)
                 (A) (A) (A) (A) (A) (A) (A) (A) (A) (A) (A) (A)
                 (A) (A) (A) (A) (A) (A) (A) (A) (A) (A) (A) (A)
                 (A) (A) (A) (A) (A) (A) (A) (A) (A) (A) (A) (A)
                 (A) (A) (A) (A) (A) (A) (A) (A) (A) (A) (A) (A)
                 (A) (A) (A) (A) (A) (A) (A) (A) (A) (A) (A) (A)
                 (A) (A) (A) (A) (A) (A) (A) (A) (A) (A) (A) (A)
                 (A) (A) (A) (A) (A) (A) (A) (A) (A) (A) (A) (A)
                 (A) (A) (A) (A) (A)
 The electronic state is 1-A.
 Alpha  occ. eigenvalues --  -19.37206 -19.35167 -19.32920 -10.52534 -10.50267
 Alpha  occ. eigenvalues --  -10.48720 -10.44412 -10.44192 -10.41817 -10.41742
 Alpha  occ. eigenvalues --   -1.26606  -1.25683  -1.19245  -1.09756  -1.00452
 Alpha  occ. eigenvalues --   -0.97313  -0.85315  -0.84421  -0.80847  -0.74312
 Alpha  occ. eigenvalues --   -0.71309  -0.69441  -0.67343  -0.66795  -0.65883
 Alpha  occ. eigenvalues --   -0.64322  -0.62246  -0.61942  -0.60172  -0.57921
 Alpha  occ. eigenvalues --   -0.55812  -0.51087  -0.50463  -0.49052  -0.47777
 Alpha virt. eigenvalues --   -0.39922  -0.25918  -0.24008  -0.18425  -0.13099
 Alpha virt. eigenvalues --   -0.10477  -0.08791  -0.08627  -0.07730  -0.05815
 Alpha virt. eigenvalues --   -0.04892  -0.03758  -0.02257  -0.01944   0.00183
 Alpha virt. eigenvalues --    0.00681   0.00832   0.02931   0.04111   0.05123
 Alpha virt. eigenvalues --    0.05386   0.05959   0.09376   0.09673   0.11270
 Alpha virt. eigenvalues --    0.12406   0.12704   0.13318   0.13790   0.13938
 Alpha virt. eigenvalues --    0.15392   0.17282   0.19821   0.21624   0.21778
 Alpha virt. eigenvalues --    0.22055   0.22985   0.23105   0.24955   0.26074
 Alpha virt. eigenvalues --    0.26832   0.28012   0.29570   0.29966   0.30858
 Alpha virt. eigenvalues --    0.32165   0.32594   0.33169   0.36226   0.38585
 Alpha virt. eigenvalues --    0.39070   0.39609   0.41388   0.42167   0.44519
 Alpha virt. eigenvalues --    0.45170   0.46858   0.47935   0.48693   0.50845
 Alpha virt. eigenvalues --    0.52531   0.53577   0.54154   0.55606   0.57366
 Alpha virt. eigenvalues --    0.58907   0.61716   0.62925   0.63681   0.66116
 Alpha virt. eigenvalues --    0.67110   0.68240   0.68704   0.69099   0.73067
 Alpha virt. eigenvalues --    0.74928   0.76840   0.78879   0.79733   0.82962
 Alpha virt. eigenvalues --    0.83627   0.88822   0.89027   0.89918   0.95632
 Alpha virt. eigenvalues --    0.96397   0.96917   0.97242   0.99403   1.02310
 Alpha virt. eigenvalues --    1.04156   1.04990   1.07807   1.12746   1.13708
 Alpha virt. eigenvalues --    1.15040   1.16581   1.19502   1.20785   1.22337
 Alpha virt. eigenvalues --    1.24685   1.26156   1.26771   1.30062   1.31126
 Alpha virt. eigenvalues --    1.31897   1.35422   1.36876   1.37421   1.38920
 Alpha virt. eigenvalues --    1.39821   1.40428   1.41184   1.46514   1.47306
 Alpha virt. eigenvalues --    1.47757   1.51845   1.55256   1.58458   1.59320
 Alpha virt. eigenvalues --    1.60017   1.63337   1.67541   1.67731   1.68082
 Alpha virt. eigenvalues --    1.70602   1.72729   1.74312   1.77555   1.79068
 Alpha virt. eigenvalues --    1.81421   1.82960   1.84740   1.86377   1.87036
 Alpha virt. eigenvalues --    1.91177   1.94219   1.97133   1.97841   2.00314
 Alpha virt. eigenvalues --    2.03539   2.05076   2.07324   2.10277   2.11598
 Alpha virt. eigenvalues --    2.15387   2.16255   2.18669   2.20782   2.26773
 Alpha virt. eigenvalues --    2.28553   2.32003   2.32772   2.33968   2.35742
 Alpha virt. eigenvalues --    2.38356   2.38608   2.40418   2.43766   2.44634
 Alpha virt. eigenvalues --    2.45052   2.46817   2.48675   2.49943   2.51917
 Alpha virt. eigenvalues --    2.53437   2.54571   2.55842   2.56040   2.57212
 Alpha virt. eigenvalues --    2.57925   2.63799   2.64354   2.66357   2.69134
 Alpha virt. eigenvalues --    2.71652   2.72682   2.73254   2.74001   2.75190
 Alpha virt. eigenvalues --    2.79144   2.81932   2.84109   2.84508   2.86244
 Alpha virt. eigenvalues --    2.88099   2.88310   2.89602   2.90804   2.91680
 Alpha virt. eigenvalues --    2.93510   2.95637   2.96971   2.97680   3.01255
 Alpha virt. eigenvalues --    3.02224   3.03715   3.04724   3.06518   3.07964
 Alpha virt. eigenvalues --    3.09037   3.11265   3.11458   3.12386   3.14454
 Alpha virt. eigenvalues --    3.15707   3.16888   3.18177   3.20847   3.21396
 Alpha virt. eigenvalues --    3.22016   3.24354   3.28232   3.29314   3.31191
 Alpha virt. eigenvalues --    3.34147   3.34968   3.40863   3.47008   3.49358
 Alpha virt. eigenvalues --    3.50880   3.51499   3.57543   3.57819   3.61830
 Alpha virt. eigenvalues --    3.65861   3.68802   3.71754   3.76466   3.76899
 Alpha virt. eigenvalues --    3.77256   3.79484   3.87272   3.88256   3.92821
 Alpha virt. eigenvalues --    3.97372   3.97677   3.99262   3.99813   4.03897
 Alpha virt. eigenvalues --    4.15927   4.18190   4.24043   4.26637   4.29068
 Alpha virt. eigenvalues --    4.33304   4.35309   4.44432   4.49907   4.53835
 Alpha virt. eigenvalues --    4.56884   4.61558   4.62840   4.78472   4.81817
 Alpha virt. eigenvalues --    4.95084   4.95321   4.95654   4.98373   4.99405
 Alpha virt. eigenvalues --    5.01004   5.03559   5.11961   5.15126   5.19665
 Alpha virt. eigenvalues --    5.25004   5.27551   5.27789   5.37196   5.42638
 Alpha virt. eigenvalues --    5.48123   5.57849   5.65771   5.75678   5.78860
 Alpha virt. eigenvalues --    6.00706   6.04314   6.06334   6.11276   6.12783
 Alpha virt. eigenvalues --    6.22881   6.24907   6.27404   6.32266   6.38885
 Alpha virt. eigenvalues --    6.45840   6.54968   6.56024   6.63184   6.75557
 Alpha virt. eigenvalues --    6.78319   6.79957   6.80611   6.89536   7.02788
 Alpha virt. eigenvalues --   21.85149  22.20320  22.46002  22.50549  22.52463
 Alpha virt. eigenvalues --   22.68947  22.96672  43.51647  43.61171  43.63606
          Condensed to atoms (all electrons):
               1          2          3          4          5          6
     1  C    5.160486   0.337910  -0.002312  -0.037682  -0.004737   0.390233
     2  C    0.337910   5.143184   0.308341   0.024265   0.013578  -0.109412
     3  C   -0.002312   0.308341   5.152572   0.312023  -0.112364   0.029039
     4  C   -0.037682   0.024265   0.312023   4.609692   0.314672   0.018198
     5  C   -0.004737   0.013578  -0.112364   0.314672   5.139966   0.322368
     6  C    0.390233  -0.109412   0.029039   0.018198   0.322368   5.136864
     7  H   -0.019835   0.404237  -0.024022   0.002920  -0.002260   0.006579
     8  H    0.007360  -0.037514   0.412749  -0.025286   0.007208  -0.002544
     9  H    0.007061  -0.002913   0.007167  -0.025246   0.413947  -0.037696
    10  H   -0.018581   0.005240  -0.001478   0.002611  -0.023745   0.404402
    11  O   -0.001770   0.010668  -0.054576   0.528863  -0.054960   0.010516
    12  C    0.233042   0.001582  -0.004534  -0.000077   0.007598  -0.078478
    13  O   -0.120893   0.005848  -0.000430   0.000003   0.004023   0.025377
    14  O   -0.122707   0.026765   0.000095   0.000152   0.000054   0.004317
    15  H    0.014696  -0.002457  -0.000017  -0.000001  -0.000003  -0.000368
               7          8          9         10         11         12
     1  C   -0.019835   0.007360   0.007061  -0.018581  -0.001770   0.233042
     2  C    0.404237  -0.037514  -0.002913   0.005240   0.010668   0.001582
     3  C   -0.024022   0.412749   0.007167  -0.001478  -0.054576  -0.004534
     4  C    0.002920  -0.025286  -0.025246   0.002611   0.528863  -0.000077
     5  C   -0.002260   0.007208   0.413947  -0.023745  -0.054960   0.007598
     6  C    0.006579  -0.002544  -0.037696   0.404402   0.010516  -0.078478
     7  H    0.423322  -0.003680   0.000013  -0.000065  -0.000098  -0.008411
     8  H   -0.003680   0.423307   0.000027   0.000026   0.002479  -0.000331
     9  H    0.000013   0.000027   0.422226  -0.003432   0.002394  -0.000177
    10  H   -0.000065   0.000026  -0.003432   0.418243  -0.000083  -0.011803
    11  O   -0.000098   0.002479   0.002394  -0.000083   7.691505   0.000026
    12  C   -0.008411  -0.000331  -0.000177  -0.011803   0.000026   4.535526
    13  O    0.000281   0.000002  -0.000052   0.013653   0.000000   0.591589
    14  O    0.009818  -0.000089  -0.000000   0.000465  -0.000000   0.403153
    15  H   -0.000477  -0.000000   0.000000  -0.000039  -0.000000  -0.015422
              13         14         15
     1  C   -0.120893  -0.122707   0.014696
     2  C    0.005848   0.026765  -0.002457
     3  C   -0.000430   0.000095  -0.000017
     4  C    0.000003   0.000152  -0.000001
     5  C    0.004023   0.000054  -0.000003
     6  C    0.025377   0.004317  -0.000368
     7  H    0.000281   0.009818  -0.000477
     8  H    0.000002  -0.000089  -0.000000
     9  H   -0.000052  -0.000000   0.000000
    10  H    0.013653   0.000465  -0.000039
    11  O    0.000000  -0.000000  -0.000000
    12  C    0.591589   0.403153  -0.015422
    13  O    7.779459  -0.070751   0.002415
    14  O   -0.070751   7.819463   0.291143
    15  H    0.002415   0.291143   0.345415
 Mulliken charges:
               1
     1  C    0.177727
     2  C   -0.129321
     3  C   -0.022254
     4  C    0.274891
     5  C   -0.025345
     6  C   -0.119394
     7  H    0.211678
     8  H    0.216285
     9  H    0.216682
    10  H    0.214586
    11  O   -0.134966
    12  C    0.346717
    13  O   -0.230525
    14  O   -0.361878
    15  H    0.365116
 Sum of Mulliken charges =   1.00000
 Mulliken charges with hydrogens summed into heavy atoms:
               1
     1  C    0.177727
     2  C    0.082357
     3  C    0.194030
     4  C    0.274891
     5  C    0.191337
     6  C    0.095191
    11  O   -0.134966
    12  C    0.346717
    13  O   -0.230525
    14  O    0.003238
 Electronic spatial extent (au):  <R**2>=           1568.7497
 Charge=              1.0000 electrons
 Dipole moment (field-independent basis, Debye):
    X=             -0.7187    Y=             -1.1279    Z=              0.7370  Tot=              1.5270
 Quadrupole moment (field-independent basis, Debye-Ang):
   XX=            -41.1605   YY=            -41.8082   ZZ=            -53.1249
   XY=             -5.5378   XZ=              3.2229   YZ=             -0.7510
 Traceless Quadrupole moment (field-independent basis, Debye-Ang):
   XX=              4.2040   YY=              3.5563   ZZ=             -7.7604
   XY=             -5.5378   XZ=              3.2229   YZ=             -0.7510
 Octapole moment (field-independent basis, Debye-Ang**2):
  XXX=             67.1853  YYY=             -1.5136  ZZZ=              0.4560  XYY=            -18.5317
  XXY=            -19.7160  XXZ=             12.8158  XZZ=              3.4739  YZZ=             -0.3032
  YYZ=              0.8004  XYZ=             -3.4812
 Hexadecapole moment (field-independent basis, Debye-Ang**3):
 XXXX=          -1294.7834 YYYY=           -327.4676 ZZZZ=            -51.4223 XXXY=            -93.4606
 XXXZ=             51.3909 YYYX=             -7.2403 YYYZ=             -0.6793 ZZZX=              1.8745
 ZZZY=             -0.6520 XXYY=           -281.0247 XXZZ=           -234.0744 YYZZ=            -78.8159
 XXYZ=            -13.2075 YYXZ=              3.4719 ZZXY=             -0.8225
 N-N= 4.655184362378D+02 E-N=-2.075324936595D+03  KE= 4.923700354182D+02
   1 Symmetry operations used in ECPInt.
 ECPInt:  NShTT=    8515 NPrTT=   26800 LenC2=    8089 LenP2D=   19685.
 LDataN:  DoStor=T MaxTD1= 7 Len=  274
 Calling FoFJK, ICntrl=      2127 FMM=F ISym2X=0 I1Cent= 0 IOpClX= 0 NMat=1 NMatS=1 NMatT=0.
 ***** Axes restored to original set *****
 -------------------------------------------------------------------
 Center     Atomic                   Forces (Hartrees/Bohr)
 Number     Number              X              Y              Z
 -------------------------------------------------------------------
      1        6           0.015651739   -0.018795454    0.004035046
      2        6           0.001284037    0.002215116   -0.000172170
      3        6          -0.028972894    0.003555840   -0.000089280
      4        6          -0.001955236    0.047416855   -0.000892721
      5        6           0.031200090    0.003655693   -0.000320563
      6        6          -0.002947865   -0.001911149   -0.000105934
      7        1           0.006229690   -0.007087823    0.000048374
      8        1           0.004657167    0.010126261   -0.000044330
      9        1          -0.005107973    0.009551588   -0.000087490
     10        1          -0.005449338   -0.008289206    0.000285975
     11        8           0.001884795   -0.068564068    0.001187970
     12        6          -0.035121837   -0.077238500   -0.000008116
     13        8           0.065579875    0.051214240   -0.003820716
     14        8          -0.038737870    0.066129354   -0.001007896
     15        1          -0.008194381   -0.011978745    0.000991851
 -------------------------------------------------------------------
 Cartesian Forces:  Max     0.077238500 RMS     0.025856197

 GradGradGradGradGradGradGradGradGradGradGradGradGradGradGradGradGradGrad
 Berny optimization.
 FormGI is forming the generalized inverse of G from B-inverse, IUseBI=4.
 Internal  Forces:  Max     0.082674279 RMS     0.017588799
 Search for a local minimum.
 Step number   1 out of a maximum of   77
 All quantities printed in internal units (Hartrees-Bohrs-Radians)
 Mixed Optimization -- RFO/linear search
 Second derivative matrix not updated -- first step.
 ITU=  0
     Eigenvalues ---    0.00237   0.00422   0.00590   0.00833   0.01295
     Eigenvalues ---    0.01407   0.01439   0.01645   0.02021   0.02047
     Eigenvalues ---    0.02300   0.02344   0.16000   0.16000   0.16000
     Eigenvalues ---    0.16000   0.16000   0.22000   0.22903   0.24001
     Eigenvalues ---    0.25000   0.25000   0.25000   0.25000   0.28519
     Eigenvalues ---    0.29259   0.29513   0.37230   0.37230   0.37230
     Eigenvalues ---    0.37230   0.40989   0.41451   0.42370   0.50594
     Eigenvalues ---    0.53771   0.55473   0.80209   0.80209
 RFO step:  Lambda=-4.04287040D-02 EMin= 2.36824292D-03
 Linear search not attempted -- first point.
 Iteration  1 RMS(Cart)=  0.06573558 RMS(Int)=  0.00250809
 Iteration  2 RMS(Cart)=  0.00225808 RMS(Int)=  0.00006430
 Iteration  3 RMS(Cart)=  0.00001804 RMS(Int)=  0.00006329
 Iteration  4 RMS(Cart)=  0.00000000 RMS(Int)=  0.00006329
 Variable       Old X    -DE/DX   Delta X   Delta X   Delta X     New X
                                 (Linear)    (Quad)   (Total)
    R1        2.67537   0.00146   0.00000   0.00416   0.00414   2.67951
    R2        2.67537  -0.00183   0.00000  -0.00297  -0.00298   2.67239
    R3        2.91018  -0.02855   0.00000  -0.08767  -0.08767   2.82250
    R4        2.56236   0.00301   0.00000   0.00537   0.00536   2.56772
    R5        2.02201   0.00897   0.00000   0.02174   0.02174   2.04375
    R6        2.88378  -0.02216   0.00000  -0.06674  -0.06672   2.81706
    R7        2.02201   0.00902   0.00000   0.02184   0.02184   2.04385
    R8        2.88378  -0.02219   0.00000  -0.06703  -0.06701   2.81678
    R9        2.37803  -0.06860   0.00000  -0.08142  -0.08142   2.29661
   R10        2.56236   0.00217   0.00000   0.00368   0.00369   2.56605
   R11        2.02201   0.00886   0.00000   0.02147   0.02147   2.04347
   R12        2.02201   0.00910   0.00000   0.02205   0.02205   2.04406
   R13        2.37803  -0.08267   0.00000  -0.09813  -0.09813   2.27990
   R14        2.70231  -0.06718   0.00000  -0.14918  -0.14918   2.55313
   R15        1.81414   0.01097   0.00000   0.01843   0.01843   1.83257
    A1        2.13942   0.00340   0.00000   0.01545   0.01541   2.15483
    A2        2.07188   0.00471   0.00000   0.01434   0.01436   2.08624
    A3        2.07188  -0.00811   0.00000  -0.02979  -0.02977   2.04211
    A4        2.11717  -0.00794   0.00000  -0.02763  -0.02767   2.08950
    A5        2.08301   0.00102   0.00000  -0.00091  -0.00089   2.08212
    A6        2.08301   0.00692   0.00000   0.02854   0.02856   2.11157
    A7        2.07286   0.00287   0.00000   0.01037   0.01038   2.08324
    A8        2.10516   0.00519   0.00000   0.02786   0.02786   2.13302
    A9        2.10516  -0.00806   0.00000  -0.03824  -0.03824   2.06693
   A10        2.04688   0.00578   0.00000   0.01707   0.01712   2.06400
   A11        2.11815  -0.00331   0.00000  -0.01000  -0.01002   2.10813
   A12        2.11815  -0.00246   0.00000  -0.00707  -0.00709   2.11106
   A13        2.07286   0.00443   0.00000   0.01549   0.01553   2.08839
   A14        2.10516  -0.00851   0.00000  -0.03917  -0.03919   2.06597
   A15        2.10516   0.00408   0.00000   0.02368   0.02366   2.12883
   A16        2.11717  -0.00853   0.00000  -0.03076  -0.03076   2.08641
   A17        2.08301   0.00027   0.00000  -0.00456  -0.00456   2.07845
   A18        2.08301   0.00826   0.00000   0.03532   0.03532   2.11832
   A19        2.09440   0.00334   0.00000   0.01151   0.01147   2.10586
   A20        2.09440  -0.02992   0.00000  -0.10302  -0.10307   1.99133
   A21        2.09440   0.02658   0.00000   0.09152   0.09147   2.18587
   A22        1.91063  -0.00977   0.00000  -0.04877  -0.04877   1.86187
    D1       -0.00000   0.00004   0.00000   0.00077   0.00077   0.00077
    D2        3.14159   0.00005   0.00000   0.00083   0.00083  -3.14076
    D3        3.14159  -0.00011   0.00000  -0.00200  -0.00204   3.13955
    D4       -0.00000  -0.00010   0.00000  -0.00194  -0.00198  -0.00198
    D5        0.00000   0.00000   0.00000  -0.00001  -0.00002  -0.00001
    D6       -3.14159   0.00002   0.00000   0.00032   0.00032  -3.14127
    D7       -3.14159   0.00016   0.00000   0.00276   0.00273  -3.13886
    D8        0.00000   0.00018   0.00000   0.00309   0.00306   0.00307
    D9       -3.14159  -0.00025   0.00000  -0.00566  -0.00552   3.13607
   D10        0.00000   0.00050   0.00000   0.01067   0.01051   0.01051
   D11        0.00000  -0.00040   0.00000  -0.00832  -0.00816  -0.00815
   D12       -3.14159   0.00035   0.00000   0.00801   0.00787  -3.13372
   D13        0.00000  -0.00006   0.00000  -0.00105  -0.00106  -0.00105
   D14       -3.14159  -0.00008   0.00000  -0.00139  -0.00138   3.14021
   D15       -3.14159  -0.00007   0.00000  -0.00110  -0.00112   3.14047
   D16        0.00000  -0.00009   0.00000  -0.00144  -0.00145  -0.00145
   D17        0.00000   0.00004   0.00000   0.00065   0.00067   0.00067
   D18        3.14159  -0.00000   0.00000  -0.00004  -0.00002   3.14157
   D19       -3.14159   0.00006   0.00000   0.00099   0.00098  -3.14061
   D20       -0.00000   0.00002   0.00000   0.00030   0.00030   0.00029
   D21       -0.00000   0.00001   0.00000   0.00006   0.00007   0.00006
   D22       -3.14159  -0.00005   0.00000  -0.00093  -0.00092   3.14068
   D23       -3.14159   0.00004   0.00000   0.00075   0.00076  -3.14084
   D24        0.00000  -0.00001   0.00000  -0.00024  -0.00023  -0.00022
   D25       -0.00000  -0.00003   0.00000  -0.00037  -0.00038  -0.00038
   D26       -3.14159  -0.00004   0.00000  -0.00069  -0.00072   3.14088
   D27        3.14159   0.00003   0.00000   0.00062   0.00065  -3.14095
   D28       -0.00000   0.00001   0.00000   0.00030   0.00030   0.00030
   D29       -2.61799  -0.00713   0.00000  -0.13458  -0.13486  -2.75285
   D30        0.52360  -0.00637   0.00000  -0.11826  -0.11798   0.40562
         Item               Value     Threshold  Converged?
 Maximum Force            0.082674     0.000450     NO 
 RMS     Force            0.017589     0.000300     NO 
 Maximum Displacement     0.304780     0.001800     NO 
 RMS     Displacement     0.066032     0.001200     NO 
 Predicted change in Energy=-2.267284D-02
 GradGradGradGradGradGradGradGradGradGradGradGradGradGradGradGradGradGrad

                          Input orientation:                          
 ---------------------------------------------------------------------
 Center     Atomic      Atomic             Coordinates (Angstroms)
 Number     Number       Type             X           Y           Z
 ---------------------------------------------------------------------
      1          6           0        0.038730   -1.763631    0.030214
      2          6           0        1.271185   -1.062652    0.015399
      3          6           0        1.273220    0.296034   -0.000254
      4          6           0       -0.024914    1.028908   -0.002955
      5          6           0       -1.284892    0.232652    0.012659
      6          6           0       -1.222367   -1.123706    0.028845
      7          1           0        2.197525   -1.620816    0.016694
      8          1           0        2.189151    0.871129   -0.010622
      9          1           0       -2.227588    0.762429    0.011598
     10          1           0       -2.118992   -1.728623    0.041083
     11          8           0       -0.053342    2.243810   -0.016796
     12          6           0        0.041344   -3.257163    0.044735
     13          8           0       -0.995353   -3.874007    0.063194
     14          8           0        1.275638   -3.806495    0.055040
     15          1           0        1.181728   -4.708410   -0.288691
 ---------------------------------------------------------------------
                    Distance matrix (angstroms):
                    1          2          3          4          5
     1  C    0.000000
     2  C    1.417935   0.000000
     3  C    2.401482   1.358778   0.000000
     4  C    2.793461   2.460657   1.490725   0.000000
     5  C    2.395293   2.865546   2.558930   1.490575   0.000000
     6  C    1.414168   2.494336   2.871317   2.463463   1.357894
     7  H    2.163556   1.081505   2.128131   3.458418   3.944945
     8  H    3.401168   2.140759   1.081560   2.219692   3.532304
     9  H    3.393747   3.946182   3.531759   2.218783   1.081360
    10  H    2.158033   3.455066   3.950702   3.462814   2.131462
    11  O    4.008774   3.562036   2.356665   1.215313   2.358462
    12  C    1.493605   2.515800   3.760951   4.286848   3.733462
    13  O    2.350340   3.611536   4.747598   4.998470   4.117163
    14  O    2.388274   2.744132   4.102902   5.007586   4.782554
    15  H    3.174881   3.659511   5.013584   5.869791   5.530743
                    6          7          8          9         10
     6  C    0.000000
     7  H    3.455854   0.000000
     8  H    3.952136   2.492110   0.000000
     9  H    2.137351   5.026083   4.418132   0.000000
    10  H    1.081670   4.317932   5.032045   2.493592   0.000000
    11  O    3.564949   4.472455   2.629270   2.631092   4.477777
    12  C    2.479689   2.706942   4.653917   4.615871   2.646413
    13  O    2.759868   3.908133   5.715140   4.797666   2.421926
    14  O    3.665798   2.372453   4.766444   5.757564   3.980108
    15  H    4.327887   3.264711   5.676573   6.453192   4.458995
                   11         12         13         14         15
    11  O    0.000000
    12  C    5.502132   0.000000
    13  O    6.190433   1.206473   0.000000
    14  O    6.194960   1.351057   2.272010   0.000000
    15  H    7.066306   1.875571   2.357909   0.969753   0.000000
 Stoichiometry    C7H5O3(1+)
 Framework group  C1[X(C7H5O3)]
 Deg. of freedom    39
 Full point group                 C1      NOp   1
 Largest Abelian subgroup         C1      NOp   1
 Largest concise Abelian subgroup C1      NOp   1
                         Standard orientation:                         
 ---------------------------------------------------------------------
 Center     Atomic      Atomic             Coordinates (Angstroms)
 Number     Number       Type             X           Y           Z
 ---------------------------------------------------------------------
      1          6           0        0.582031    0.038929   -0.006042
      2          6           0       -0.061159   -1.224732   -0.008263
      3          6           0       -1.418373   -1.289790   -0.004286
      4          6           0       -2.210634   -0.027047    0.003737
      5          6           0       -1.473541    1.268523    0.006223
      6          6           0       -0.115657    1.268991    0.001115
      7          1           0        0.539338   -2.124195   -0.013055
      8          1           0       -1.950456   -2.231412   -0.007043
      9          1           0       -2.046440    2.185640    0.011169
     10          1           0        0.447126    2.192726    0.002085
     11          8           0       -3.425620   -0.055005    0.007408
     12          6           0        2.074147    0.105574   -0.007773
     13          8           0        2.642400    1.169835   -0.011668
     14          8           0        2.680172   -1.101825   -0.024403
     15          1           0        3.573931   -0.969486    0.327879
 ---------------------------------------------------------------------
 Rotational constants (GHZ):           3.6523622           0.8414788           0.6841341
 Standard basis: def2TZVP (5D, 7F)
 There are   390 symmetry adapted cartesian basis functions of A   symmetry.
 There are   340 symmetry adapted basis functions of A   symmetry.
   340 basis functions,   550 primitive gaussians,   390 cartesian basis functions
    35 alpha electrons       35 beta electrons
       nuclear repulsion energy       476.0433584402 Hartrees.
 NAtoms=   15 NActive=   15 NUniq=   15 SFac= 1.00D+00 NAtFMM=   60 NAOKFM=F Big=F
 Integral buffers will be    131072 words long.
 Raffenetti 2 integral format.
 Two-electron integral symmetry is turned on.
 One-electron integrals computed using PRISM.
   1 Symmetry operations used in ECPInt.
 ECPInt:  NShTT=    8515 NPrTT=   26800 LenC2=    8124 LenP2D=   19861.
 LDataN:  DoStor=T MaxTD1= 6 Len=  172
 NBasis=   340 RedAO= T EigKep=  1.24D-05  NBF=   340
 NBsUse=   340 1.00D-06 EigRej= -1.00D+00 NBFU=   340
 Initial guess from the checkpoint file:  "C6H5O+.chk"
 B after Tr=    -0.000000   -0.000000    0.000000
         Rot=    0.999990    0.000058   -0.000023    0.004462 Ang=   0.51 deg.
 ExpMin= 9.52D-02 ExpMax= 2.70D+04 ExpMxC= 9.22D+02 IAcc=2 IRadAn=         4 AccDes= 0.00D+00
 Harris functional with IExCor=  402 and IRadAn=       4 diagonalized for initial guess.
 HarFok:  IExCor=  402 AccDes= 0.00D+00 IRadAn=         4 IDoV= 1 UseB2=F ITyADJ=14
 ICtDFT=  3500011 ScaDFX=  1.000000  1.000000  1.000000  1.000000
 FoFCou: FMM=F IPFlag=           0 FMFlag=      100000 FMFlg1=           0
         NFxFlg=           0 DoJE=T BraDBF=F KetDBF=T FulRan=T
         wScrn=  0.000000 ICntrl=       500 IOpCl=  0 I1Cent=   200000004 NGrid=           0
         NMat0=    1 NMatS0=      1 NMatT0=    0 NMatD0=    1 NMtDS0=    0 NMtDT0=    0
 Petite list used in FoFCou.
 Requested convergence on RMS density matrix=1.00D-08 within 128 cycles.
 Requested convergence on MAX density matrix=1.00D-06.
 Requested convergence on             energy=1.00D-06.
 No special actions if energy rises.
 Integral accuracy reduced to 1.0D-05 until final iterations.
 Initial convergence to 1.0D-05 achieved.  Increase integral accuracy.
 SCF Done:  E(RB3LYP) =  -495.274544939     A.U. after   13 cycles
            NFock= 13  Conv=0.93D-08     -V/T= 2.0046
   1 Symmetry operations used in ECPInt.
 ECPInt:  NShTT=    8515 NPrTT=   26800 LenC2=    8124 LenP2D=   19861.
 LDataN:  DoStor=T MaxTD1= 7 Len=  274
 Calling FoFJK, ICntrl=      2127 FMM=F ISym2X=0 I1Cent= 0 IOpClX= 0 NMat=1 NMatS=1 NMatT=0.
 ***** Axes restored to original set *****
 -------------------------------------------------------------------
 Center     Atomic                   Forces (Hartrees/Bohr)
 Number     Number              X              Y              Z
 -------------------------------------------------------------------
      1        6           0.006496971    0.004318365    0.002741270
      2        6           0.004952023    0.004713433   -0.000006709
      3        6          -0.003058097   -0.004445938    0.000041639
      4        6          -0.000320089    0.007271640   -0.000126081
      5        6           0.002843327   -0.003480751   -0.000065232
      6        6          -0.005779311    0.004050634   -0.000206619
      7        1          -0.000911623   -0.000678453   -0.000014964
      8        1          -0.000472134    0.002679523    0.000030940
      9        1           0.000292551    0.002897228   -0.000001545
     10        1           0.000965279   -0.001585542    0.000094341
     11        8           0.000051274   -0.005684311    0.000065616
     12        6          -0.002168563   -0.021097679    0.005768291
     13        8           0.007941274    0.005072477   -0.004246560
     14        8          -0.013812832    0.013017264   -0.010805961
     15        1           0.002979949   -0.007047889    0.006731576
 -------------------------------------------------------------------
 Cartesian Forces:  Max     0.021097679 RMS     0.005756204

 GradGradGradGradGradGradGradGradGradGradGradGradGradGradGradGradGradGrad
 Berny optimization.
 Using GEDIIS/GDIIS optimizer.
 FormGI is forming the generalized inverse of G from B-inverse, IUseBI=4.
 Internal  Forces:  Max     0.012354598 RMS     0.003317258
 Search for a local minimum.
 Step number   2 out of a maximum of   77
 All quantities printed in internal units (Hartrees-Bohrs-Radians)
 Mixed Optimization -- RFO/linear search
 Update second derivatives using D2CorX and points    1    2
 DE= -2.41D-02 DEPred=-2.27D-02 R= 1.06D+00
 TightC=F SS=  1.41D+00  RLast= 3.49D-01 DXNew= 5.0454D-01 1.0462D+00
 Trust test= 1.06D+00 RLast= 3.49D-01 DXMaxT set to 5.05D-01
 ITU=  1  0
 Use linear search instead of GDIIS.
     Eigenvalues ---    0.00237   0.00422   0.00616   0.00824   0.01256
     Eigenvalues ---    0.01450   0.01453   0.01680   0.02004   0.02045
     Eigenvalues ---    0.02306   0.02355   0.15579   0.16000   0.16000
     Eigenvalues ---    0.16000   0.16415   0.21998   0.22868   0.24006
     Eigenvalues ---    0.24366   0.24999   0.25000   0.25136   0.28697
     Eigenvalues ---    0.29516   0.31515   0.37185   0.37230   0.37230
     Eigenvalues ---    0.37433   0.39090   0.42159   0.42458   0.50544
     Eigenvalues ---    0.53797   0.55324   0.78170   0.80328
 RFO step:  Lambda=-6.10452076D-03 EMin= 2.36831882D-03
 Quartic linear search produced a step of  0.13396.
 Iteration  1 RMS(Cart)=  0.03304195 RMS(Int)=  0.02585103
 Iteration  2 RMS(Cart)=  0.02389280 RMS(Int)=  0.00188742
 Iteration  3 RMS(Cart)=  0.00194973 RMS(Int)=  0.00010629
 Iteration  4 RMS(Cart)=  0.00000772 RMS(Int)=  0.00010616
 Iteration  5 RMS(Cart)=  0.00000000 RMS(Int)=  0.00010616
 Variable       Old X    -DE/DX   Delta X   Delta X   Delta X     New X
                                 (Linear)    (Quad)   (Total)
    R1        2.67951   0.00403   0.00055   0.01056   0.01112   2.69063
    R2        2.67239   0.00469  -0.00040   0.01279   0.01239   2.68478
    R3        2.82250   0.01002  -0.01174   0.04591   0.03416   2.85667
    R4        2.56772  -0.00057   0.00072  -0.00155  -0.00083   2.56689
    R5        2.04375  -0.00043   0.00291  -0.00289   0.00003   2.04377
    R6        2.81706  -0.00129  -0.00894  -0.00006  -0.00899   2.80807
    R7        2.04385   0.00102   0.00293   0.00141   0.00434   2.04819
    R8        2.81678  -0.00184  -0.00898  -0.00199  -0.01097   2.80581
    R9        2.29661  -0.00568  -0.01091  -0.00331  -0.01422   2.28239
   R10        2.56605  -0.00022   0.00049  -0.00064  -0.00015   2.56590
   R11        2.04347   0.00116   0.00288   0.00185   0.00473   2.04820
   R12        2.04406   0.00009   0.00295  -0.00138   0.00158   2.04564
   R13        2.27990  -0.00948  -0.01315  -0.00764  -0.02078   2.25912
   R14        2.55313  -0.01235  -0.01998  -0.02263  -0.04261   2.51052
   R15        1.83257   0.00388   0.00247   0.00658   0.00905   1.84162
    A1        2.15483  -0.00155   0.00206  -0.00648  -0.00441   2.15042
    A2        2.08624   0.00377   0.00192   0.01434   0.01626   2.10250
    A3        2.04211  -0.00222  -0.00399  -0.00787  -0.01185   2.03026
    A4        2.08950  -0.00124  -0.00371  -0.00272  -0.00642   2.08307
    A5        2.08212  -0.00045  -0.00012  -0.00414  -0.00426   2.07786
    A6        2.11157   0.00169   0.00383   0.00686   0.01069   2.12225
    A7        2.08324   0.00211   0.00139   0.00806   0.00945   2.09269
    A8        2.13302   0.00152   0.00373   0.00942   0.01315   2.14617
    A9        2.06693  -0.00363  -0.00512  -0.01748  -0.02261   2.04432
   A10        2.06400  -0.00006   0.00229  -0.00394  -0.00164   2.06236
   A11        2.10813   0.00012  -0.00134   0.00251   0.00117   2.10930
   A12        2.11106  -0.00007  -0.00095   0.00142   0.00047   2.11153
   A13        2.08839   0.00125   0.00208   0.00357   0.00565   2.09404
   A14        2.06597  -0.00335  -0.00525  -0.01645  -0.02170   2.04427
   A15        2.12883   0.00210   0.00317   0.01288   0.01605   2.14487
   A16        2.08641  -0.00051  -0.00412   0.00150  -0.00263   2.08379
   A17        2.07845  -0.00164  -0.00061  -0.01117  -0.01178   2.06667
   A18        2.11832   0.00215   0.00473   0.00967   0.01440   2.13273
   A19        2.10586   0.00250   0.00154   0.01017   0.01121   2.11707
   A20        1.99133  -0.00586  -0.01381  -0.01600  -0.03030   1.96103
   A21        2.18587   0.00337   0.01225   0.00671   0.01847   2.20434
   A22        1.86187   0.00866  -0.00653   0.06409   0.05756   1.91942
    D1        0.00077   0.00001   0.00010   0.00015   0.00024   0.00101
    D2       -3.14076   0.00002   0.00011   0.00024   0.00036  -3.14041
    D3        3.13955  -0.00006  -0.00027  -0.00139  -0.00169   3.13786
    D4       -0.00198  -0.00005  -0.00026  -0.00130  -0.00158  -0.00356
    D5       -0.00001   0.00001  -0.00000   0.00049   0.00049   0.00048
    D6       -3.14127   0.00003   0.00004   0.00095   0.00099  -3.14028
    D7       -3.13886   0.00007   0.00037   0.00196   0.00231  -3.13655
    D8        0.00307   0.00008   0.00041   0.00242   0.00281   0.00588
    D9        3.13607   0.00014  -0.00074   0.01291   0.01212  -3.13500
   D10        0.01051  -0.00030   0.00141  -0.04427  -0.04281  -0.03230
   D11       -0.00815   0.00008  -0.00109   0.01146   0.01032   0.00217
   D12       -3.13372  -0.00036   0.00105  -0.04571  -0.04460   3.10486
   D13       -0.00105  -0.00003  -0.00014  -0.00091  -0.00106  -0.00211
   D14        3.14021  -0.00003  -0.00019  -0.00070  -0.00088   3.13933
   D15        3.14047  -0.00004  -0.00015  -0.00101  -0.00117   3.13930
   D16       -0.00145  -0.00004  -0.00019  -0.00080  -0.00100  -0.00245
   D17        0.00067   0.00003   0.00009   0.00106   0.00116   0.00183
   D18        3.14157   0.00000  -0.00000   0.00021   0.00022  -3.14139
   D19       -3.14061   0.00003   0.00013   0.00085   0.00099  -3.13962
   D20        0.00029   0.00001   0.00004   0.00001   0.00005   0.00034
   D21        0.00006  -0.00000   0.00001  -0.00043  -0.00042  -0.00036
   D22        3.14068  -0.00003  -0.00012  -0.00125  -0.00136   3.13931
   D23       -3.14084   0.00002   0.00010   0.00042   0.00052  -3.14032
   D24       -0.00022  -0.00001  -0.00003  -0.00040  -0.00042  -0.00065
   D25       -0.00038  -0.00002  -0.00005  -0.00031  -0.00036  -0.00074
   D26        3.14088  -0.00003  -0.00010  -0.00078  -0.00089   3.13999
   D27       -3.14095   0.00002   0.00009   0.00056   0.00066  -3.14029
   D28        0.00030   0.00000   0.00004   0.00009   0.00013   0.00043
   D29       -2.75285  -0.00693  -0.01807  -0.29920  -0.31719  -3.07005
   D30        0.40562  -0.00738  -0.01580  -0.35944  -0.37532   0.03030
         Item               Value     Threshold  Converged?
 Maximum Force            0.012355     0.000450     NO 
 RMS     Force            0.003317     0.000300     NO 
 Maximum Displacement     0.335899     0.001800     NO 
 RMS     Displacement     0.054091     0.001200     NO 
 Predicted change in Energy=-4.918463D-03
 GradGradGradGradGradGradGradGradGradGradGradGradGradGradGradGradGradGrad

                          Input orientation:                          
 ---------------------------------------------------------------------
 Center     Atomic      Atomic             Coordinates (Angstroms)
 Number     Number       Type             X           Y           Z
 ---------------------------------------------------------------------
      1          6           0        0.045197   -1.763911    0.014062
      2          6           0        1.280056   -1.055268   -0.000269
      3          6           0        1.268259    0.303021   -0.001652
      4          6           0       -0.026225    1.032606    0.009013
      5          6           0       -1.279359    0.236368    0.023373
      6          6           0       -1.221276   -1.120202    0.026032
      7          1           0        2.206084   -1.613893   -0.009968
      8          1           0        2.172406    0.900669   -0.010173
      9          1           0       -2.213751    0.785521    0.033209
     10          1           0       -2.111749   -1.735617    0.037826
     11          8           0       -0.056768    2.240008    0.007756
     12          6           0        0.028902   -3.275503    0.011059
     13          8           0       -0.999205   -3.885531    0.016210
     14          8           0        1.250764   -3.793961   -0.045395
     15          1           0        1.197738   -4.764849   -0.110941
 ---------------------------------------------------------------------
                    Distance matrix (angstroms):
                    1          2          3          4          5
     1  C    0.000000
     2  C    1.423818   0.000000
     3  C    2.401736   1.358341   0.000000
     4  C    2.797434   2.462859   1.485966   0.000000
     5  C    2.399094   2.866965   2.548613   1.484772   0.000000
     6  C    1.420725   2.502314   2.867772   2.462320   1.357815
     7  H    2.166222   1.081519   2.134044   3.462299   3.946250
     8  H    3.409633   2.149902   1.083854   2.202670   3.515268
     9  H    3.406291   3.949218   3.515454   2.201570   1.083861
    10  H    2.157263   3.459577   3.947411   3.466021   2.140515
    11  O    4.005222   3.556123   2.346850   1.207789   2.347243
    12  C    1.511682   2.548521   3.787083   4.308462   3.747657
    13  O    2.364751   3.633963   4.762948   5.013463   4.131414
    14  O    2.361785   2.739221   4.097253   4.992936   4.759181
    15  H    3.217080   3.712145   5.069539   5.926463   5.582672
                    6          7          8          9         10
     6  C    0.000000
     7  H    3.462921   0.000000
     8  H    3.949977   2.514788   0.000000
     9  H    2.148684   5.029314   4.387883   0.000000
    10  H    1.082505   4.319813   5.030537   2.523205   0.000000
    11  O    3.556322   4.469157   2.600648   2.601683   4.475427
    12  C    2.491684   2.738889   4.694196   4.639170   2.637111
    13  O    2.774248   3.928728   5.741735   4.826400   2.420816
    14  O    3.642125   2.380460   4.784373   5.742883   3.943375
    15  H    4.376510   3.309907   5.749629   6.516568   4.488996
                   11         12         13         14         15
    11  O    0.000000
    12  C    5.516177   0.000000
    13  O    6.197619   1.195476   0.000000
    14  O    6.174241   1.328508   2.252674   0.000000
    15  H    7.117296   1.897160   2.369795   0.974542   0.000000
 Stoichiometry    C7H5O3(1+)
 Framework group  C1[X(C7H5O3)]
 Deg. of freedom    39
 Full point group                 C1      NOp   1
 Largest Abelian subgroup         C1      NOp   1
 Largest concise Abelian subgroup C1      NOp   1
                         Standard orientation:                         
 ---------------------------------------------------------------------
 Center     Atomic      Atomic             Coordinates (Angstroms)
 Number     Number       Type             X           Y           Z
 ---------------------------------------------------------------------
      1          6           0        0.582923    0.027516   -0.012633
      2          6           0       -0.072379   -1.236537   -0.015456
      3          6           0       -1.429917   -1.282750   -0.008648
      4          6           0       -2.214046   -0.020582    0.004342
      5          6           0       -1.472008    1.265467    0.007092
      6          6           0       -0.114222    1.265389   -0.001730
      7          1           0        0.525240   -2.137913   -0.022821
      8          1           0       -1.988446   -2.211604   -0.012383
      9          1           0       -2.060523    2.175605    0.014419
     10          1           0        0.462625    2.181394   -0.001556
     11          8           0       -3.421635   -0.041627    0.010744
     12          6           0        2.092445    0.108267   -0.015194
     13          8           0        2.658074    1.161426   -0.006142
     14          8           0        2.662754   -1.091096    0.019581
     15          1           0        3.630788   -0.997728    0.082230
 ---------------------------------------------------------------------
 Rotational constants (GHZ):           3.6776859           0.8395338           0.6835519
 Standard basis: def2TZVP (5D, 7F)
 There are   390 symmetry adapted cartesian basis functions of A   symmetry.
 There are   340 symmetry adapted basis functions of A   symmetry.
   340 basis functions,   550 primitive gaussians,   390 cartesian basis functions
    35 alpha electrons       35 beta electrons
       nuclear repulsion energy       476.4376566206 Hartrees.
 NAtoms=   15 NActive=   15 NUniq=   15 SFac= 1.00D+00 NAtFMM=   60 NAOKFM=F Big=F
 Integral buffers will be    131072 words long.
 Raffenetti 2 integral format.
 Two-electron integral symmetry is turned on.
 One-electron integrals computed using PRISM.
   1 Symmetry operations used in ECPInt.
 ECPInt:  NShTT=    8515 NPrTT=   26800 LenC2=    8124 LenP2D=   19856.
 LDataN:  DoStor=T MaxTD1= 6 Len=  172
 NBasis=   340 RedAO= T EigKep=  1.25D-05  NBF=   340
 NBsUse=   340 1.00D-06 EigRej= -1.00D+00 NBFU=   340
 Initial guess from the checkpoint file:  "C6H5O+.chk"
 B after Tr=     0.000000    0.000000    0.000000
         Rot=    0.999999   -0.000043   -0.000037    0.001451 Ang=  -0.17 deg.
 ExpMin= 9.52D-02 ExpMax= 2.70D+04 ExpMxC= 9.22D+02 IAcc=2 IRadAn=         4 AccDes= 0.00D+00
 Harris functional with IExCor=  402 and IRadAn=       4 diagonalized for initial guess.
 HarFok:  IExCor=  402 AccDes= 0.00D+00 IRadAn=         4 IDoV= 1 UseB2=F ITyADJ=14
 ICtDFT=  3500011 ScaDFX=  1.000000  1.000000  1.000000  1.000000
 FoFCou: FMM=F IPFlag=           0 FMFlag=      100000 FMFlg1=           0
         NFxFlg=           0 DoJE=T BraDBF=F KetDBF=T FulRan=T
         wScrn=  0.000000 ICntrl=       500 IOpCl=  0 I1Cent=   200000004 NGrid=           0
         NMat0=    1 NMatS0=      1 NMatT0=    0 NMatD0=    1 NMtDS0=    0 NMtDT0=    0
 Petite list used in FoFCou.
 Requested convergence on RMS density matrix=1.00D-08 within 128 cycles.
 Requested convergence on MAX density matrix=1.00D-06.
 Requested convergence on             energy=1.00D-06.
 No special actions if energy rises.
 Integral accuracy reduced to 1.0D-05 until final iterations.
 Initial convergence to 1.0D-05 achieved.  Increase integral accuracy.
 SCF Done:  E(RB3LYP) =  -495.278607200     A.U. after   15 cycles
            NFock= 15  Conv=0.61D-08     -V/T= 2.0045
   1 Symmetry operations used in ECPInt.
 ECPInt:  NShTT=    8515 NPrTT=   26800 LenC2=    8124 LenP2D=   19856.
 LDataN:  DoStor=T MaxTD1= 7 Len=  274
 Calling FoFJK, ICntrl=      2127 FMM=F ISym2X=0 I1Cent= 0 IOpClX= 0 NMat=1 NMatS=1 NMatT=0.
 ***** Axes restored to original set *****
 -------------------------------------------------------------------
 Center     Atomic                   Forces (Hartrees/Bohr)
 Number     Number              X              Y              Z
 -------------------------------------------------------------------
      1        6           0.001994720    0.003645684    0.001591667
      2        6           0.000713119    0.001262140   -0.000024005
      3        6           0.002046864   -0.003184917   -0.000076518
      4        6           0.000106103   -0.003650492    0.000119080
      5        6          -0.002454638   -0.003038067    0.000040838
      6        6          -0.001233428    0.001393915    0.000177472
      7        1          -0.000516071    0.000120236    0.000057170
      8        1          -0.000487852    0.000114285   -0.000020204
      9        1           0.000515709    0.000172554   -0.000051831
     10        1           0.000638615   -0.000275012   -0.000036076
     11        8          -0.000080421    0.006328367   -0.000041195
     12        6           0.003810159   -0.002238768   -0.004471607
     13        8          -0.007190110   -0.002234579    0.001479947
     14        8           0.002507838    0.000770015   -0.000021286
     15        1          -0.000370608    0.000814640    0.001276548
 -------------------------------------------------------------------
 Cartesian Forces:  Max     0.007190110 RMS     0.002198196

 GradGradGradGradGradGradGradGradGradGradGradGradGradGradGradGradGradGrad
 Berny optimization.
 Using GEDIIS/GDIIS optimizer.
 FormGI is forming the generalized inverse of G from B-inverse, IUseBI=4.
 Internal  Forces:  Max     0.007330162 RMS     0.001511140
 Search for a local minimum.
 Step number   3 out of a maximum of   77
 All quantities printed in internal units (Hartrees-Bohrs-Radians)
 Mixed Optimization -- RFO/linear search
 Update second derivatives using D2CorX and points    2    3
 DE= -4.06D-03 DEPred=-4.92D-03 R= 8.26D-01
 TightC=F SS=  1.41D+00  RLast= 5.07D-01 DXNew= 8.4853D-01 1.5208D+00
 Trust test= 8.26D-01 RLast= 5.07D-01 DXMaxT set to 8.49D-01
 ITU=  1  1  0
 Use linear search instead of GDIIS.
     Eigenvalues ---    0.00237   0.00422   0.00610   0.00822   0.01451
     Eigenvalues ---    0.01478   0.01697   0.01812   0.01999   0.02048
     Eigenvalues ---    0.02310   0.02360   0.15033   0.16000   0.16000
     Eigenvalues ---    0.16005   0.16484   0.21938   0.22674   0.23436
     Eigenvalues ---    0.24160   0.25000   0.25035   0.25200   0.29066
     Eigenvalues ---    0.29516   0.30667   0.37202   0.37230   0.37230
     Eigenvalues ---    0.37395   0.39613   0.42096   0.42425   0.50543
     Eigenvalues ---    0.53824   0.55418   0.80139   0.82148
 RFO step:  Lambda=-1.76138062D-03 EMin= 2.37318994D-03
 Quartic linear search produced a step of  0.05004.
 Iteration  1 RMS(Cart)=  0.06800726 RMS(Int)=  0.01191849
 Iteration  2 RMS(Cart)=  0.01717783 RMS(Int)=  0.00356898
 Iteration  3 RMS(Cart)=  0.00044497 RMS(Int)=  0.00354242
 Iteration  4 RMS(Cart)=  0.00000133 RMS(Int)=  0.00354242
 Iteration  5 RMS(Cart)=  0.00000001 RMS(Int)=  0.00354242
 Variable       Old X    -DE/DX   Delta X   Delta X   Delta X     New X
                                 (Linear)    (Quad)   (Total)
    R1        2.69063  -0.00014   0.00056   0.00112   0.00168   2.69231
    R2        2.68478   0.00046   0.00062   0.00282   0.00344   2.68822
    R3        2.85667   0.00291   0.00171   0.01567   0.01738   2.87405
    R4        2.56689  -0.00167  -0.00004  -0.00339  -0.00343   2.56346
    R5        2.04377  -0.00050   0.00000  -0.00150  -0.00150   2.04227
    R6        2.80807   0.00221  -0.00045   0.00677   0.00633   2.81439
    R7        2.04819  -0.00034   0.00022  -0.00045  -0.00024   2.04795
    R8        2.80581   0.00219  -0.00055   0.00646   0.00591   2.81172
    R9        2.28239   0.00633  -0.00071   0.00665   0.00594   2.28833
   R10        2.56590  -0.00157  -0.00001  -0.00305  -0.00306   2.56284
   R11        2.04820  -0.00036   0.00024  -0.00043  -0.00020   2.04800
   R12        2.04564  -0.00037   0.00008  -0.00091  -0.00083   2.04480
   R13        2.25912   0.00733  -0.00104   0.00712   0.00608   2.26520
   R14        2.51052   0.00129  -0.00213  -0.00197  -0.00410   2.50642
   R15        1.84162  -0.00088   0.00045  -0.00046  -0.00001   1.84161
    A1        2.15042   0.00100  -0.00022   0.00330   0.00308   2.15350
    A2        2.10250   0.00071   0.00081   0.00521   0.00602   2.10853
    A3        2.03026  -0.00171  -0.00059  -0.00851  -0.00910   2.02116
    A4        2.08307  -0.00037  -0.00032  -0.00268  -0.00300   2.08007
    A5        2.07786   0.00002  -0.00021  -0.00073  -0.00094   2.07692
    A6        2.12225   0.00035   0.00053   0.00341   0.00395   2.12620
    A7        2.09269   0.00012   0.00047   0.00195   0.00242   2.09511
    A8        2.14617   0.00031   0.00066   0.00381   0.00447   2.15064
    A9        2.04432  -0.00043  -0.00113  -0.00576  -0.00689   2.03743
   A10        2.06236  -0.00035  -0.00008  -0.00147  -0.00155   2.06081
   A11        2.10930   0.00009   0.00006   0.00041   0.00047   2.10976
   A12        2.11153   0.00027   0.00002   0.00106   0.00108   2.11261
   A13        2.09404  -0.00045   0.00028  -0.00113  -0.00084   2.09320
   A14        2.04427  -0.00019  -0.00109  -0.00466  -0.00575   2.03852
   A15        2.14487   0.00065   0.00080   0.00579   0.00659   2.15147
   A16        2.08379   0.00005  -0.00013   0.00003  -0.00011   2.08368
   A17        2.06667  -0.00063  -0.00059  -0.00564  -0.00623   2.06044
   A18        2.13273   0.00058   0.00072   0.00561   0.00634   2.13906
   A19        2.11707  -0.00100   0.00056   0.00123  -0.01447   2.10261
   A20        1.96103  -0.00188  -0.00152  -0.00759  -0.02546   1.93557
   A21        2.20434   0.00298   0.00092   0.01860   0.00250   2.20684
   A22        1.91942  -0.00081   0.00288   0.00284   0.00572   1.92514
    D1        0.00101  -0.00003   0.00001  -0.00138  -0.00137  -0.00036
    D2       -3.14041  -0.00003   0.00002  -0.00104  -0.00103  -3.14143
    D3        3.13786  -0.00001  -0.00008  -0.00071  -0.00079   3.13707
    D4       -0.00356  -0.00001  -0.00008  -0.00037  -0.00045  -0.00400
    D5        0.00048   0.00003   0.00002   0.00111   0.00114   0.00162
    D6       -3.14028  -0.00001   0.00005  -0.00061  -0.00055  -3.14083
    D7       -3.13655   0.00000   0.00012   0.00044   0.00055  -3.13600
    D8        0.00588  -0.00003   0.00014  -0.00128  -0.00114   0.00474
    D9       -3.13500  -0.00122   0.00061  -0.14729  -0.14449   3.00369
   D10       -0.03230   0.00130  -0.00214   0.17378   0.16945   0.13715
   D11        0.00217  -0.00120   0.00052  -0.14663  -0.14393  -0.14176
   D12        3.10486   0.00132  -0.00223   0.17443   0.17001  -3.00831
   D13       -0.00211   0.00003  -0.00005   0.00176   0.00171  -0.00040
   D14        3.13933   0.00003  -0.00004   0.00101   0.00096   3.14029
   D15        3.13930   0.00003  -0.00006   0.00142   0.00136   3.14066
   D16       -0.00245   0.00002  -0.00005   0.00066   0.00061  -0.00183
   D17        0.00183  -0.00002   0.00006  -0.00191  -0.00186  -0.00003
   D18       -3.14139   0.00002   0.00001   0.00277   0.00277  -3.13862
   D19       -3.13962  -0.00002   0.00005  -0.00121  -0.00116  -3.14078
   D20        0.00034   0.00002   0.00000   0.00347   0.00347   0.00382
   D21       -0.00036   0.00002  -0.00002   0.00165   0.00163   0.00128
   D22        3.13931   0.00004  -0.00007   0.00256   0.00249  -3.14138
   D23       -3.14032  -0.00002   0.00003  -0.00303  -0.00301   3.13986
   D24       -0.00065  -0.00000  -0.00002  -0.00213  -0.00215  -0.00280
   D25       -0.00074  -0.00002  -0.00002  -0.00125  -0.00127  -0.00201
   D26        3.13999   0.00002  -0.00004   0.00053   0.00049   3.14048
   D27       -3.14029  -0.00004   0.00003  -0.00220  -0.00217   3.14072
   D28        0.00043  -0.00000   0.00001  -0.00042  -0.00041   0.00003
   D29       -3.07005  -0.00233  -0.01587  -0.27982  -0.29545   2.91769
   D30        0.03030   0.00023  -0.01878   0.06008   0.04105   0.07135
         Item               Value     Threshold  Converged?
 Maximum Force            0.007330     0.000450     NO 
 RMS     Force            0.001511     0.000300     NO 
 Maximum Displacement     0.473909     0.001800     NO 
 RMS     Displacement     0.081502     0.001200     NO 
 Predicted change in Energy=-1.002106D-03
 GradGradGradGradGradGradGradGradGradGradGradGradGradGradGradGradGradGrad

                          Input orientation:                          
 ---------------------------------------------------------------------
 Center     Atomic      Atomic             Coordinates (Angstroms)
 Number     Number       Type             X           Y           Z
 ---------------------------------------------------------------------
      1          6           0        0.048431   -1.763901   -0.065934
      2          6           0        1.284875   -1.056091   -0.066892
      3          6           0        1.271138    0.299206   -0.010842
      4          6           0       -0.025226    1.029800    0.050190
      5          6           0       -1.280259    0.230594    0.047295
      6          6           0       -1.220323   -1.123136   -0.008328
      7          1           0        2.208594   -1.615194   -0.112820
      8          1           0        2.171431    0.902467   -0.006746
      9          1           0       -2.211503    0.783139    0.092077
     10          1           0       -2.105429   -1.745581   -0.011707
     11          8           0       -0.055299    2.239433    0.097549
     12          6           0        0.020422   -3.283017   -0.133617
     13          8           0       -1.009807   -3.878936    0.009115
     14          8           0        1.242996   -3.784372   -0.019037
     15          1           0        1.201031   -4.744955    0.139840
 ---------------------------------------------------------------------
                    Distance matrix (angstroms):
                    1          2          3          4          5
     1  C    0.000000
     2  C    1.424707   0.000000
     3  C    2.398845   1.356525   0.000000
     4  C    2.797083   2.465972   1.489313   0.000000
     5  C    2.399218   2.872022   2.552981   1.487899   0.000000
     6  C    1.422546   2.506780   2.868875   2.463090   1.356197
     7  H    2.165783   1.080723   2.134046   3.465908   3.950274
     8  H    3.408834   2.150709   1.083729   2.201082   3.516888
     9  H    3.408765   3.953821   3.517609   2.200546   1.083756
    10  H    2.154620   3.460145   3.947450   3.468979   2.142348
    11  O    4.008012   3.561402   2.352799   1.210933   2.353398
    12  C    1.520881   2.561736   3.796272   4.316973   3.750994
    13  O    2.366194   3.638653   4.760250   5.006673   4.118596
    14  O    2.347656   2.729022   4.083683   4.978899   4.742485
    15  H    3.202735   3.695603   5.046898   5.904197   5.560705
                    6          7          8          9         10
     6  C    0.000000
     7  H    3.465619   0.000000
     8  H    3.950578   2.520169   0.000000
     9  H    2.150907   5.033015   4.385672   0.000000
    10  H    1.082063   4.317177   5.030280   2.533070   0.000000
    11  O    3.560247   4.475222   2.599362   2.601929   4.482778
    12  C    2.494039   2.751393   4.707570   4.643926   2.626368
    13  O    2.763884   3.936687   5.743026   4.815173   2.398338
    14  O    3.626325   2.376238   4.777929   5.727832   3.920290
    15  H    4.359184   3.297639   5.732062   6.496729   4.466753
                   11         12         13         14         15
    11  O    0.000000
    12  C    5.527804   0.000000
    13  O    6.193007   1.198692   0.000000
    14  O    6.163228   1.326339   2.254963   0.000000
    15  H    7.096606   1.898916   2.377999   0.974537   0.000000
 Stoichiometry    C7H5O3(1+)
 Framework group  C1[X(C7H5O3)]
 Deg. of freedom    39
 Full point group                 C1      NOp   1
 Largest Abelian subgroup         C1      NOp   1
 Largest concise Abelian subgroup C1      NOp   1
                         Standard orientation:                         
 ---------------------------------------------------------------------
 Center     Atomic      Atomic             Coordinates (Angstroms)
 Number     Number       Type             X           Y           Z
 ---------------------------------------------------------------------
      1          6           0        0.584085    0.020284    0.051371
      2          6           0       -0.073588   -1.243515    0.043162
      3          6           0       -1.429128   -1.283459    0.010359
      4          6           0       -2.211940   -0.016746   -0.016055
      5          6           0       -1.463632    1.269241   -0.005227
      6          6           0       -0.107819    1.262975    0.026385
      7          1           0        0.522729   -2.144594    0.063769
      8          1           0       -1.995884   -2.207131    0.001081
      9          1           0       -2.053678    2.178084   -0.024670
     10          1           0        0.478698    2.172258    0.034360
     11          8           0       -3.422454   -0.034646   -0.042361
     12          6           0        2.101824    0.108343    0.093739
     13          8           0        2.653459    1.163945   -0.041418
     14          8           0        2.649567   -1.090998   -0.050255
     15          1           0        3.604751   -1.007770   -0.224666
 ---------------------------------------------------------------------
 Rotational constants (GHZ):           3.6604572           0.8412944           0.6846739
 Standard basis: def2TZVP (5D, 7F)
 There are   390 symmetry adapted cartesian basis functions of A   symmetry.
 There are   340 symmetry adapted basis functions of A   symmetry.
   340 basis functions,   550 primitive gaussians,   390 cartesian basis functions
    35 alpha electrons       35 beta electrons
       nuclear repulsion energy       476.2978647503 Hartrees.
 NAtoms=   15 NActive=   15 NUniq=   15 SFac= 1.00D+00 NAtFMM=   60 NAOKFM=F Big=F
 Integral buffers will be    131072 words long.
 Raffenetti 2 integral format.
 Two-electron integral symmetry is turned on.
 One-electron integrals computed using PRISM.
   1 Symmetry operations used in ECPInt.
 ECPInt:  NShTT=    8515 NPrTT=   26800 LenC2=    8126 LenP2D=   19861.
 LDataN:  DoStor=T MaxTD1= 6 Len=  172
 NBasis=   340 RedAO= T EigKep=  1.26D-05  NBF=   340
 NBsUse=   340 1.00D-06 EigRej= -1.00D+00 NBFU=   340
 Initial guess from the checkpoint file:  "C6H5O+.chk"
 B after Tr=     0.000000   -0.000000    0.000000
         Rot=    1.000000   -0.000034   -0.000024    0.000747 Ang=  -0.09 deg.
 ExpMin= 9.52D-02 ExpMax= 2.70D+04 ExpMxC= 9.22D+02 IAcc=2 IRadAn=         4 AccDes= 0.00D+00
 Harris functional with IExCor=  402 and IRadAn=       4 diagonalized for initial guess.
 HarFok:  IExCor=  402 AccDes= 0.00D+00 IRadAn=         4 IDoV= 1 UseB2=F ITyADJ=14
 ICtDFT=  3500011 ScaDFX=  1.000000  1.000000  1.000000  1.000000
 FoFCou: FMM=F IPFlag=           0 FMFlag=      100000 FMFlg1=           0
         NFxFlg=           0 DoJE=T BraDBF=F KetDBF=T FulRan=T
         wScrn=  0.000000 ICntrl=       500 IOpCl=  0 I1Cent=   200000004 NGrid=           0
         NMat0=    1 NMatS0=      1 NMatT0=    0 NMatD0=    1 NMtDS0=    0 NMtDT0=    0
 Petite list used in FoFCou.
 Requested convergence on RMS density matrix=1.00D-08 within 128 cycles.
 Requested convergence on MAX density matrix=1.00D-06.
 Requested convergence on             energy=1.00D-06.
 No special actions if energy rises.
 Integral accuracy reduced to 1.0D-05 until final iterations.
[...]
 ! D24   D(11,4,5,9)            -0.1171         -DE/DX =    0.0                 !
 ! D25   D(4,5,6,1)             -1.5645         -DE/DX =    0.0                 !
 ! D26   D(4,5,6,10)           178.7293         -DE/DX =    0.0                 !
 ! D27   D(9,5,6,1)            178.5875         -DE/DX =    0.0                 !
 ! D28   D(9,5,6,10)            -1.1187         -DE/DX =    0.0                 !
 ! D29   D(1,12,14,15)         178.6305         -DE/DX =    0.0                 !
 ! D30   D(13,12,14,15)          1.5935         -DE/DX =    0.0                 !
 --------------------------------------------------------------------------------
 GradGradGradGradGradGradGradGradGradGradGradGradGradGradGradGradGradGrad


 ----------------------------------------------------------------------

 Electric dipole moment (input orientation):
 (Debye = 10**-18 statcoulomb cm , SI units = C m)
                  (au)            (Debye)         (10**-30 SI)
   Tot        0.644643D+00      0.163852D+01      0.546551D+01
   x          0.476861D+00      0.121206D+01      0.404300D+01
   y         -0.234561D+00     -0.596194D+00     -0.198869D+01
   z         -0.364897D+00     -0.927475D+00     -0.309372D+01

 Dipole polarizability, Alpha (input orientation).
 (esu units = cm**3 , SI units = C**2 m**2 J**-1)
 Alpha(0;0):
               (au)            (10**-24 esu)      (10**-40 SI)
   iso        0.928874D+02      0.137645D+02      0.153151D+02
   aniso      0.873238D+02      0.129401D+02      0.143977D+02
   xx         0.854156D+02      0.126573D+02      0.140831D+02
   yx        -0.661760D+00     -0.980628D-01     -0.109110D+00
   yy         0.146355D+03      0.216876D+02      0.241307D+02
   zx        -0.190805D+01     -0.282744D+00     -0.314595D+00
   zy        -0.475627D+01     -0.704806D+00     -0.784202D+00
   zz         0.468916D+02      0.694861D+01      0.773137D+01

 ----------------------------------------------------------------------

 Dipole orientation:
     6         -0.45742984          3.04731323          1.27564460
     6          1.43307405          1.48227686          2.37979362
     6          1.80596790         -0.87092069          1.44064041
     6          0.27253080         -1.77581584         -0.73964620
     6         -1.63248430         -0.02571925         -1.83786548
     6         -1.93397962          2.31674075         -0.85043904
     1          2.49809391          2.18379619          3.97738411
     1          3.17236651         -2.18328328          2.21659821
     1         -2.72149047         -0.72027770         -3.42581735
     1         -3.27196678          3.65732926         -1.61996862
     8          0.57663674         -3.87882760         -1.59098602
     6         -0.81333732          5.70180071          2.23775885
     8         -1.01557855          7.38323546          0.73013024
     8         -0.75438225          5.86210161          4.72960657
     1         -0.95044181          7.61247574          5.27147440

 Electric dipole moment (dipole orientation):
 (Debye = 10**-18 statcoulomb cm , SI units = C m)
                  (au)            (Debye)         (10**-30 SI)
   Tot        0.644643D+00      0.163852D+01      0.546551D+01
   x          0.000000D+00      0.000000D+00      0.000000D+00
   y          0.000000D+00      0.000000D+00      0.000000D+00
   z          0.644643D+00      0.163852D+01      0.546551D+01

 Dipole polarizability, Alpha (dipole orientation).
 (esu units = cm**3 , SI units = C**2 m**2 J**-1)
 Alpha(0;0):
               (au)            (10**-24 esu)      (10**-40 SI)
   iso        0.928874D+02      0.137645D+02      0.153151D+02
   aniso      0.873238D+02      0.129401D+02      0.143977D+02
   xx         0.629415D+02      0.932697D+01      0.103777D+02
   yx        -0.168293D+02     -0.249385D+01     -0.277478D+01
   yy         0.134585D+03      0.199435D+02      0.221901D+02
   zx         0.137938D+02      0.204403D+01      0.227429D+01
   zy         0.261060D+02      0.386851D+01      0.430430D+01
   zz         0.811352D+02      0.120230D+02      0.133774D+02

 ----------------------------------------------------------------------
 1\1\GINC-N02\Freq\RB3LYP\def2TZVP\C7H5O3(1+)\UNKNOWN\20-Jan-2025\0\\#N
  Geom=AllCheck Guess=TCheck SCRF=Check GenChk RB3LYP/def2TZVP Freq\\op
 t\\1,1\C,0.0647114175,-1.7634656434,0.0255878698\C,1.2901221427,-1.045
 9577355,0.13354341\C,1.2648956128,0.3087714559,0.1077222345\C,-0.03419
 56841,1.0274798168,-0.0136947443\C,-1.2791124139,0.217859781,-0.093474
 028\C,-1.2094321257,-1.1344688479,-0.056231207\H,2.2183512419,-1.59654
 90644,0.2069796676\H,2.1584194861,0.9193986766,0.157475317\H,-2.212459
 4799,0.7610415214,-0.1778465009\H,-2.0932255007,-1.7574235323,-0.09135
 33733\O,-0.0714843789,2.2378444869,-0.0445736548\C,0.0773714779,-3.267
 02789,0.1091931379\O,-0.7353402028,-3.8096865021,0.8053735205\O,1.0585
 165693,-3.8191202217,-0.5832661628\H,1.0439334676,-4.7892382914,-0.485
 2935662\\Version=ES64L-G16RevA.03\State=1-A\HF=-495.279326\RMSD=3.179e
 -09\RMSF=1.642e-05\ZeroPoint=0.106401\Thermal=0.1149224\Dipole=0.47686
 11,-0.2345608,-0.3648967\DipoleDeriv=1.053778,0.2438856,0.0809765,0.07
 65279,0.8819867,-0.0487916,0.0580475,0.0185,0.2069679,-0.3213696,-0.42
 76265,-0.0124338,-0.8186511,-0.7002136,-0.040191,-0.003727,-0.2488953,
 -0.0407151,-0.0088956,0.0844941,-0.0157311,0.4402485,0.5381597,0.02509
 61,-0.0002351,0.0268908,0.0858451,0.2019103,0.0553711,-0.0062459,-0.00
 11635,0.4528463,-0.0115646,0.0011302,-0.020926,0.3073837,0.0327958,-0.
 1367253,0.0016717,-0.4579184,0.4471245,-0.0421675,-0.0030242,-0.022193
 ,0.0781237,-0.3960504,0.4354705,-0.0371526,0.7907167,-0.6075928,0.0781
 685,-0.0461108,-0.0560803,-0.0471385,0.1117634,-0.0009607,-0.0042241,0
 .0034428,0.0997945,0.0033048,-0.003916,-0.0079123,0.1425197,0.140967,0
 .0371859,0.0001147,0.0310362,0.1189221,0.0019599,-0.0129405,0.0375681,
 0.1284667,0.1438516,-0.0468238,0.0022212,-0.0285029,0.111764,-0.002891
 9,0.0041947,0.0305396,0.131999,0.1242942,0.0120858,-0.006757,-0.003454
 4,0.1000459,0.0001277,0.0104444,-0.0048278,0.141036,-0.1967265,-0.0077
 834,0.001591,0.0023009,-0.4127137,0.0112762,0.0020473,0.0034602,-0.235
 0712,1.0986978,-0.9134661,-0.5930927,-0.2139532,1.1295576,0.0895681,-0
 .5821855,0.887475,0.7256517,-0.5820911,0.1919569,0.2473741,-0.1339925,
 -0.8689333,0.1729115,0.2563661,-0.2901315,-0.4578173,-0.726186,0.62570
 41,0.3065554,0.4100809,-0.7972909,-0.3013655,0.3035754,-0.4673782,-0.5
 075988,0.3232613,-0.1527684,0.0351325,-0.0967179,0.5065427,0.0645594,0
 .0163334,0.1139108,0.3403474\Polar=85.4156443,-0.6617605,146.3549879,-
 1.9080506,-4.7562651,46.8915526\Quadrupole=2.9286496,4.7618048,-7.6904
 543,-3.8476179,1.8585725,2.7465012\PG=C01 [X(C7H5O3)]\NImag=0\\0.61543
 300,-0.00605640,0.56587571,0.01034877,0.00304586,0.18536436,-0.2424450
 4,-0.07751048,-0.01616890,0.66331804,-0.02686368,-0.15237399,-0.007367
 23,-0.07761718,0.74521650,-0.01457277,-0.00952376,-0.06817359,0.045266
 71,-0.01180942,0.12565567,-0.00319856,-0.04185776,-0.00027622,-0.11919
 990,0.01528734,-0.00285688,0.60448756,-0.04400530,-0.02940813,-0.00229
 923,0.03115890,-0.44170177,0.01006634,0.08475801,0.76915199,0.00191956
 ,-0.00226611,0.00165607,-0.00629333,0.01018731,-0.05815944,0.03372811,
 -0.00717364,0.13335620,0.04433867,0.00171633,0.00293627,-0.00195936,-0
 .02123108,0.00068095,-0.19644285,0.02752617,-0.00840318,0.47603060,0.0
 0233197,-0.00507564,-0.00005777,0.01985563,-0.02728301,0.00234917,0.00
 333290,-0.07380367,-0.00049727,-0.00941217,0.86042610,0.00477851,-0.00
 049210,-0.01400231,-0.00295735,-0.00212140,0.01043953,-0.00963706,0.00
 336274,-0.08315270,0.02443847,-0.01670415,0.17511008,-0.00793670,0.042
 34584,-0.00231405,-0.00225567,-0.00470357,-0.00101770,-0.03485086,-0.0
 0985646,-0.00417371,-0.19409907,-0.01322989,-0.00871990,0.61864262,0.0
 4239592,-0.02359040,0.00388970,-0.00966120,-0.01974922,0.00050053,0.00
 540232,0.02318816,0.00034099,-0.03621706,-0.07849511,-0.00247221,-0.09
 355534,0.75880967,-0.00016368,0.00169894,0.00155743,0.00123558,0.00092
 227,-0.00277944,-0.00493507,-0.00194244,0.02213236,-0.00823910,-0.0005
 6098,-0.08243897,0.04014587,-0.02189343,0.13318607,-0.25334790,0.07308
 745,-0.01010012,-0.03892682,-0.00908760,-0.00178558,-0.00373893,0.0111
 7031,-0.00072409,-0.00221819,-0.01932992,0.00028634,-0.11793944,-0.007
 51670,-0.00552363,0.65488762,0.02268926,-0.14172412,0.00534272,0.00203
 010,0.05411826,-0.00342806,0.00726750,-0.01866529,0.00034271,0.0204698
 4,-0.02679351,0.00257158,0.00701665,-0.44525986,0.01055347,0.07090617,
 0.76322211,-0.00756697,0.00002923,-0.06657143,-0.00378565,0.00012799,0
 .00708357,-0.00024718,0.00044565,-0.00258495,-0.00051961,-0.00012513,0
 .01015524,-0.00573645,0.00909605,-0.05787745,0.03023491,-0.00982124,0.
 12625577,-0.02017845,0.01184281,-0.00164084,-0.27027486,0.12491135,-0.
 01864529,0.00739978,-0.00161114,0.00011409,0.00014027,-0.00149632,-0.0
 0056001,0.00075790,-0.00016386,0.00002214,-0.00158061,-0.00381796,-0.0
 0056480,0.28283642,-0.01700940,0.01188385,-0.00138989,0.12647834,-0.13
 210993,0.01050633,0.02926077,-0.01298072,0.00236072,-0.00407281,-0.001
 89928,-0.00021643,-0.00003312,-0.00076719,-0.00004202,-0.00321341,-0.0
 0194671,-0.00030366,-0.13155660,0.13857829,-0.00200313,0.00186064,0.00
 299965,-0.01773633,0.00956505,-0.04464697,-0.00034561,0.00018560,0.008
 21892,-0.00139124,0.00035159,0.01151023,0.00019799,-0.00015225,-0.0015
 7218,-0.00045184,-0.00028933,0.00434345,0.02019561,-0.01107679,0.02913
 592,-0.00178119,0.00176737,-0.00074840,0.00983812,0.00598059,-0.000624
 28,-0.25757303,-0.13469460,-0.01234724,-0.01657734,-0.01722069,-0.0011
 4842,-0.00279834,0.00438541,-0.00031629,0.00130638,-0.00164581,0.00017
 948,0.00064639,-0.00025736,0.00048794,0.26384362,0.00055599,-0.0058068
 2,0.00024339,-0.02473952,-0.00947782,-0.00092698,-0.13359126,-0.147893
 72,-0.00712438,0.01510893,0.01220002,0.00083739,0.00342316,-0.00238339
 ,0.00031819,0.00007255,-0.00009846,0.00009060,0.00001593,0.00108018,-0
 .00014188,0.14199014,0.15043213,-0.00158637,0.00031623,0.01029919,0.00
 129988,-0.00066153,0.01258197,-0.01287641,-0.00674103,-0.04278148,-0.0
 0287442,-0.00119813,0.00494771,-0.00016532,0.00017526,-0.00083288,-0.0
 0002161,0.00088451,-0.00092079,0.00036338,0.00002215,-0.00567820,0.014
 06715,0.00713263,0.02491845,-0.00147491,-0.00164233,-0.00069625,0.0011
 6394,0.00177092,-0.00000047,-0.00219745,-0.00437875,-0.00008192,-0.016
 72587,0.01506735,-0.00201148,-0.27577875,0.12484920,-0.02100549,0.0084
 5410,-0.00423667,-0.00019590,0.00002586,0.00012331,0.00006494,-0.00074
 385,0.00069093,-0.00022876,0.28311039,-0.00070790,-0.00578348,0.000619
 27,0.00004465,0.00002345,0.00011380,-0.00343389,-0.00293889,-0.0002690
 0,-0.01727264,0.01218384,-0.00147444,0.12385878,-0.12890354,0.01136036
 ,0.02608027,-0.00811158,0.00260846,0.00010229,0.00007030,0.00000194,-0
 .00080182,0.00070898,-0.00003729,-0.13183154,0.13043714,-0.00232003,0.
 00271125,0.00986552,-0.00009393,-0.00024852,-0.00073410,0.00024107,0.0
 0013969,-0.00073619,-0.00113864,0.00065667,0.00472298,-0.02066084,0.01
 201158,-0.04336243,0.00003093,-0.00155205,0.01171998,0.00012288,0.0000
 5274,-0.00049991,-0.00020124,0.00006588,0.00249501,0.02303771,-0.01252
 436,0.02615554,-0.02099117,-0.01436934,-0.00113537,-0.00211568,0.00379
 895,-0.00034496,0.00072907,0.00027929,0.00009817,-0.00036037,0.0016144
 7,-0.00058230,0.00962492,0.00333152,0.00024607,-0.25103941,-0.13443745
 ,-0.00893349,-0.00062963,-0.00076192,-0.00012940,0.00004397,-0.0000994
 7,0.00005270,0.00063049,-0.00003710,0.00023237,0.26274936,0.01428812,0
 .01237561,0.00081586,0.00313007,-0.00162449,0.00021043,0.00018306,-0.0
 0071370,-0.00010846,0.00389287,-0.00156379,0.00104581,-0.02698112,-0.0
 1441186,-0.00120492,-0.13641306,-0.15239156,-0.00673657,0.00069413,0.0
 0063988,0.00012208,-0.00012418,0.00003578,0.00001582,0.00022781,0.0010
 9734,-0.00030081,0.14178548,0.15939000,-0.00127553,-0.00219281,0.00327
 636,-0.00067065,0.00055561,0.00444012,0.00016361,-0.00001164,-0.001523
 98,-0.00061636,0.00035510,0.01151721,0.00029946,0.00033098,0.00801041,
 -0.00904610,-0.00543280,-0.04348082,-0.00010049,-0.00005308,0.00038928
 ,0.00003783,-0.00001221,-0.00052100,0.00045420,-0.00017400,-0.00561142
 ,0.00964265,0.00637515,0.02802329,-0.01789925,-0.00073428,-0.00088907,
 -0.00259197,0.01519801,-0.00095371,0.00849524,0.04207902,-0.00201766,-
 0.09214835,0.01817879,-0.00404792,0.01276819,-0.03742744,0.00023217,-0
 .00082048,-0.01478934,0.00003795,0.00055722,0.00200663,0.00033084,0.00
 357687,-0.00246841,0.00063940,0.00340630,0.00266210,0.00032412,0.00070
 577,-0.00171619,0.00012375,0.08393450,-0.00088840,0.00460169,-0.000283
 14,0.01254237,0.00387488,0.00064245,0.03293058,-0.06480591,0.00484609,
 0.01798783,-0.67134931,0.01580321,-0.02770210,-0.06910175,-0.00033421,
 -0.01242321,0.00141474,-0.00131029,-0.00039648,-0.00248923,-0.00010769
 ,0.00049900,0.00107450,-0.00003615,-0.00036464,0.00121864,0.00002575,0
 .00070967,-0.00245865,-0.00003131,-0.02248795,0.79944063,-0.00159320,-
 0.00020475,0.00187835,0.00002670,0.00169293,-0.00084168,-0.00136266,0.
 00483351,0.01887191,-0.00407342,0.01587074,-0.04870114,0.00012952,-0.0
 0117661,0.01899564,-0.00001722,-0.00117144,-0.00053507,0.00013646,0.00
 018462,-0.00215065,0.00033945,-0.00017578,-0.00165941,0.00041576,0.000
 16369,-0.00165906,0.00014063,-0.00023913,-0.00215005,0.00596433,-0.019
 91767,0.01775724,-0.08442075,0.02903194,-0.01423891,0.00673894,-0.0302
 7031,-0.00331593,-0.00569218,-0.00130364,-0.00090490,0.00394067,0.0022
 4777,-0.00028911,-0.01047509,0.00351286,-0.00099865,0.00787280,0.02741
 211,0.00118903,-0.00136587,-0.00207453,-0.00027193,0.00038560,-0.00098
 474,0.00092831,-0.00008338,0.00160268,-0.00024605,-0.00153043,0.001790
 00,0.00000214,-0.00147075,-0.00220545,0.00006648,0.65950694,0.00921428
 ,-0.17600231,-0.01427488,-0.00867288,-0.00431544,0.00751763,0.00337708
 ,-0.00352023,0.00067226,0.00009141,0.00311506,0.00014885,-0.00263946,-
 0.00424666,0.00089786,0.00874595,-0.00921330,0.00486225,0.00133060,0.0
 0159179,-0.00047706,-0.00018502,0.00078484,-0.00082671,0.00027787,0.00
 063021,-0.00145607,-0.00150508,0.00063933,0.00048732,-0.00001140,-0.00
 217765,0.00015914,0.07058239,0.64508463,-0.02506446,-0.02327646,-0.072
 83413,0.00406189,-0.00258350,0.01658908,-0.00430531,-0.00339587,0.0048
 9219,-0.00338287,-0.00183408,0.00012168,0.00408365,-0.00092102,0.00572
 820,-0.00444186,0.00629041,0.01286937,0.00105479,0.00094452,-0.0014578
 8,0.00042677,-0.00092449,-0.00313282,0.00060589,-0.00054329,-0.0026213
 4,0.00145325,-0.00018726,-0.00193319,0.00116724,0.00219528,0.00014100,
 -0.32433093,-0.09216582,0.44363143,-0.00099724,-0.02590177,0.02209314,
 0.00107562,0.00035583,-0.00314236,0.00028959,0.00005176,-0.00065215,-0
 .00227295,-0.00109287,0.00022314,0.00323531,0.00089959,-0.00051666,-0.
 00330626,-0.00028730,-0.00331219,0.00030832,0.00047395,0.00068736,-0.0
 0003524,-0.00011459,0.00054320,0.00001976,-0.00030362,0.00066128,0.001
 82659,-0.00045506,0.00034141,0.00086360,0.00111562,-0.00013391,-0.3705
 1666,-0.18949655,0.25176557,0.42008163,-0.03158310,-0.02715276,0.03314
 077,0.00250738,-0.00907858,-0.00644328,-0.00195658,0.00175320,-0.00172
 583,0.00139921,-0.00095337,-0.00052390,-0.00066095,0.00421783,-0.00090
 556,0.00101954,-0.00660264,0.00024881,-0.00011230,-0.00015877,0.000690
 39,0.00010532,-0.00043845,0.00140364,-0.00034837,0.00000956,0.00073992
 ,-0.00031762,-0.00120545,0.00041057,-0.00046450,0.00033904,0.00002311,
 -0.19994250,-0.24962890,0.18534687,0.22790576,0.24809588,0.02455621,0.
 03095176,-0.00187275,-0.00401492,0.00207820,0.00060122,0.00230449,0.00
 179846,-0.00007007,0.00138649,0.00072514,-0.00000742,-0.00161458,0.000
 22168,-0.00020032,0.00239011,-0.00255417,-0.00049258,-0.00027467,-0.00
 054090,-0.00039673,-0.00014487,0.00052953,-0.00000613,-0.00013425,0.00
 020554,-0.00001635,-0.00041490,-0.00027864,-0.00017461,-0.00048363,-0.
 00075094,0.00001608,0.24665761,0.16712984,-0.27968395,-0.32907015,-0.2
 0905819,0.30693499,-0.00464317,0.00592844,0.00802992,-0.00221048,0.002
 38182,0.00230687,0.00102998,-0.00124108,-0.00012608,-0.00171266,-0.001
 16091,0.00015035,0.00149041,-0.00025609,0.00013482,0.00015757,0.001084
 71,-0.00035372,0.00094420,0.00056267,0.00014407,-0.00016020,0.00009364
 ,-0.00028588,0.00023812,-0.00003102,-0.00014768,0.00042157,-0.00039241
 ,0.00052595,0.00064120,0.00102578,-0.00000872,-0.20098524,0.06508091,0
 .09591238,-0.05051748,0.00883653,0.06267625,0.28888358,0.03348204,-0.0
 2640072,-0.02074612,-0.00002364,-0.00668070,-0.00041798,-0.00061234,0.
 00276115,0.00049882,-0.00000813,-0.00050116,0.00014849,0.00222649,0.00
 116536,0.00102609,-0.00234747,-0.00842983,0.00140848,0.00048407,-0.001
 40177,-0.00059798,0.00026041,-0.00018356,-0.00037606,-0.00024648,-0.00
 058339,-0.00033929,-0.00012717,0.00021749,-0.00065222,-0.00000240,0.00
 010994,-0.00001323,0.09058662,-0.17815205,-0.06413461,-0.00640559,0.03
 871134,0.00461787,-0.08242769,0.63896684,0.00855778,0.00011441,0.00469
 691,-0.00046876,-0.00135587,-0.00204295,0.00052270,0.00111973,-0.00000
 253,0.00100324,0.00065948,-0.00034325,-0.00097781,0.00037078,-0.000524
 78,-0.00013916,-0.00103107,0.00034595,-0.00018590,-0.00041805,-0.00023
 906,0.00003202,0.00009557,0.00022160,-0.00021117,0.00005194,0.00023765
 ,-0.00034896,0.00041536,-0.00036333,-0.00034279,-0.00080124,0.00008496
 ,0.09658979,-0.04349797,-0.12886834,0.06288354,-0.00673928,-0.02095046
 ,-0.18244133,0.01309107,0.18125828,-0.00045733,0.00235221,0.00480002,-
 0.00015488,0.00008861,-0.00099463,0.00046252,0.00006750,-0.00013566,0.
 00006680,0.00031387,0.00007673,-0.00038543,0.00002089,-0.00031808,0.00
 023957,0.00033818,-0.00042542,0.00041304,0.00007348,0.00022073,0.00002
 826,0.00004674,0.00014475,-0.00004474,0.00006877,0.00015805,-0.0000650
 4,0.00009048,0.00011813,-0.00001808,-0.00034261,-0.00003021,-0.0019045
 9,0.04380988,0.00099401,-0.00005460,-0.00638780,-0.00381916,-0.0335773
 8,-0.03483873,0.01552681,0.03545188,0.00215660,-0.00141848,-0.00067931
 ,0.00047747,0.00116187,0.00064281,-0.00034773,-0.00042248,-0.00008420,
 0.00002130,-0.00020715,0.00008656,0.00049109,-0.00047203,0.00010637,-0
 .00075085,0.00048175,-0.00062063,-0.00022652,-0.00009069,0.00006569,-0
 .00005876,-0.00003420,-0.00007335,0.00004139,-0.00005860,0.00001762,0.
 00013575,-0.00002595,0.00004534,-0.00002262,0.00030844,-0.00002914,0.0
 1001480,-0.02458934,-0.00481068,-0.00674517,0.00209206,0.00492481,0.00
 051471,-0.45959894,0.03792517,-0.00570146,0.48287374,0.00598531,-0.002
 77233,0.00186037,0.00029906,0.00101811,-0.00001297,-0.00011760,-0.0003
 8787,-0.00011632,0.00019343,0.00000962,0.00012114,0.00052388,-0.000322
 02,-0.00002165,-0.00069108,-0.00070524,-0.00031024,-0.00003736,-0.0000
 3025,0.00004413,-0.00003990,-0.00000747,0.00006879,-0.00001281,-0.0001
 0261,0.00004413,0.00002355,0.00005529,0.00010173,-0.00008503,0.0000598
 5,-0.00004814,-0.00083695,-0.02917666,0.00655868,-0.00237123,0.0033919
 5,-0.00368092,0.01348281,0.06648667,-0.03351065,-0.01631609,-0.0375170
 4,0.02890191\\0.00000319,0.00002565,-0.00002652,0.00000016,-0.00000285
 ,0.00000519,0.00000980,-0.00000211,-0.00000126,-0.00001169,0.00001970,
 -0.00000413,0.00001291,-0.00000767,-0.00000123,-0.00000273,0.00000763,
 0.00000315,0.00000067,0.00000047,0.00000032,0.00000054,-0.00000218,0.0
 0000372,-0.00000432,-0.00000429,0.00000034,-0.00000077,0.00000025,0.00
 000161,0.00000190,-0.00000796,0.00000047,-0.00005370,-0.00003927,0.000
 05688,0.00002860,0.00000773,-0.00002492,0.00001527,0.00000934,-0.00001
 240,0.00000018,-0.00000443,-0.00000122\\\@


 LAW OF COMPENSATION:
      NO CALCULATION IS EVER A COMPLETE FAILURE; IT 
      CAN ALWAYS SERVE AS A BAD EXAMPLE.

                                           -- ANON
 Job cpu time:       0 days  0 hours 22 minutes 54.3 seconds.
 Elapsed time:       0 days  0 hours 22 minutes 56.7 seconds.
 File lengths (MBytes):  RWF=    160 Int=      0 D2E=      0 Chk=     10 Scr=      1
 Normal termination of Gaussian 16 at Mon Jan 20 13:28:07 2025.
