 Entering Gaussian System, Link 0=g16
 Initial command:
 /sw/cluster/pub/apps//g16/l1.exe "/data/mmaximo/28128/Gau-1016737.inp" -scrdir="/data/mmaximo/28128/"
 Entering Link 1 = /sw/cluster/pub/apps//g16/l1.exe PID=   1016738.
  
 Copyright (c) 1988,1990,1992,1993,1995,1998,2003,2009,2016,
            Gaussian, Inc.  All Rights Reserved.
  
 This is part of the Gaussian(R) 16 program.  It is based on
 the Gaussian(R) 09 system (copyright 2009, Gaussian, Inc.),
 the Gaussian(R) 03 system (copyright 2003, Gaussian, Inc.),
 the Gaussian(R) 98 system (copyright 1998, Gaussian, Inc.),
 the Gaussian(R) 94 system (copyright 1995, Gaussian, Inc.),
 the Gaussian 92(TM) system (copyright 1992, Gaussian, Inc.),
 the Gaussian 90(TM) system (copyright 1990, Gaussian, Inc.),
 the Gaussian 88(TM) system (copyright 1988, Gaussian, Inc.),
 the Gaussian 86(TM) system (copyright 1986, Carnegie Mellon
 University), and the Gaussian 82(TM) system (copyright 1983,
 Carnegie Mellon University). Gaussian is a federally registered
 trademark of Gaussian, Inc.
  
 This software contains proprietary and confidential information,
 including trade secrets, belonging to Gaussian, Inc.
  
 This software is provided under written license and may be
 used, copied, transmitted, or stored only in accord with that
 written license.
  
 The following legend is applicable only to US Government
 contracts under FAR:
  
                    RESTRICTED RIGHTS LEGEND
  
 Use, reproduction and disclosure by the US Government is
 subject to restrictions as set forth in subparagraphs (a)
 and (c) of the Commercial Computer Software - Restricted
 Rights clause in FAR 52.227-19.
  
 Gaussian, Inc.
 340 Quinnipiac St., Bldg. 40, Wallingford CT 06492
  
  
 ---------------------------------------------------------------
 Warning -- This program may not be used in any manner that
 competes with the business of Gaussian, Inc. or will provide
 assistance to any competitor of Gaussian, Inc.  The licensee
 of this program is prohibited from giving any competitor of
 Gaussian, Inc. access to this program.  By using this program,
 the user acknowledges that Gaussian, Inc. is engaged in the
 business of creating and licensing software in the field of
 computational chemistry and represents and warrants to the
 licensee that it is not a competitor of Gaussian, Inc. and that
 it will not use this program in any manner prohibited above.
 ---------------------------------------------------------------
  

 Cite this work as:
 Gaussian 16, Revision A.03,
 M. J. Frisch, G. W. Trucks, H. B. Schlegel, G. E. Scuseria, 
 M. A. Robb, J. R. Cheeseman, G. Scalmani, V. Barone, 
 G. A. Petersson, H. Nakatsuji, X. Li, M. Caricato, A. V. Marenich, 
 J. Bloino, B. G. Janesko, R. Gomperts, B. Mennucci, H. P. Hratchian, 
 J. V. Ortiz, A. F. Izmaylov, J. L. Sonnenberg, D. Williams-Young, 
 F. Ding, F. Lipparini, F. Egidi, J. Goings, B. Peng, A. Petrone, 
 T. Henderson, D. Ranasinghe, V. G. Zakrzewski, J. Gao, N. Rega, 
 G. Zheng, W. Liang, M. Hada, M. Ehara, K. Toyota, R. Fukuda, 
 J. Hasegawa, M. Ishida, T. Nakajima, Y. Honda, O. Kitao, H. Nakai, 
 T. Vreven, K. Throssell, J. A. Montgomery, Jr., J. E. Peralta, 
 F. Ogliaro, M. J. Bearpark, J. J. Heyd, E. N. Brothers, K. N. Kudin, 
 V. N. Staroverov, T. A. Keith, R. Kobayashi, J. Normand, 
 K. Raghavachari, A. P. Rendell, J. C. Burant, S. S. Iyengar, 
 J. Tomasi, M. Cossi, J. M. Millam, M. Klene, C. Adamo, R. Cammi, 
 J. W. Ochterski, R. L. Martin, K. Morokuma, O. Farkas, 
 J. B. Foresman, and D. J. Fox, Gaussian, Inc., Wallingford CT, 2016.
 
 ******************************************
 Gaussian 16:  ES64L-G16RevA.03 25-Dec-2016
                22-Jan-2025 
 ******************************************
 %chk=C6H5CH2+o.chk
 ----------------------------------------------
 # opt=(tight,modredundant) freq b3lyp def2tzvp
 ----------------------------------------------
 1/7=10,18=120,19=15,26=3,38=1/1,3;
 2/9=110,12=2,17=6,18=5,40=1/2;
 3/5=44,7=101,11=2,25=1,30=1,71=1,74=-5/1,2,3;
 4//1;
 5/5=2,38=5/2;
 6/7=2,8=2,9=2,10=2,28=1/1;
 7//1,2,3,16;
 1/7=10,18=20,19=15,26=3/3(2);
 2/9=110/2;
 99//99;
 2/9=110/2;
 3/5=44,7=101,11=2,25=1,30=1,71=1,74=-5/1,2,3;
 4/5=5,16=3,69=1/1;
 5/5=2,38=5/2;
 7//1,2,3,16;
 1/7=10,18=20,19=15,26=3/3(-5);
 2/9=110/2;
 6/7=2,8=2,9=2,10=2,19=2,28=1/1;
 99/9=1/99;
 ---
 opt
 ---
 Symbolic Z-matrix:
 Charge =  1 Multiplicity = 1
 C                     0.01107  -1.79358  -0.06639 
 C                     1.1875   -1.07855   0.18668 
 C                     1.16174   0.27566   0.23169 
 C                    -0.03451   0.96975  -0.00447 
 C                    -1.21856   0.24635  -0.21243 
 C                    -1.19413  -1.10788  -0.25769 
 H                     2.10736  -1.60148   0.34577 
 H                     2.05839   0.81828   0.44727 
 H                    -2.14527   0.76652  -0.33706 
 H                    -2.09675  -1.65324  -0.43865 
 C                    -0.07915   2.36267   0.14284 
 H                    -0.26393   2.79327   1.10478 
 H                     0.07156   2.99559  -0.70663 
 C                     0.04211  -3.33191  -0.13122 
 O                     1.12603  -3.94723   0.04216 
 O                    -1.1608   -4.06112  -0.38845 
 H                    -1.11373  -4.91803   0.04175 
 
 The following ModRedundant input section has been read:
 D       5       4      11      12 90.000 B                                    
 
 Iteration  1 RMS(Cart)=  0.00705215 RMS(Int)=  0.00553611
 Iteration  2 RMS(Cart)=  0.00010660 RMS(Int)=  0.00553488
 Iteration  3 RMS(Cart)=  0.00000012 RMS(Int)=  0.00553488

 GradGradGradGradGradGradGradGradGradGradGradGradGradGradGradGradGradGrad
 Berny optimization.
 Initialization pass.
                           ----------------------------
                           !    Initial Parameters    !
                           ! (Angstroms and Degrees)  !
 --------------------------                            --------------------------
 ! Name  Definition              Value          Derivative Info.                !
 --------------------------------------------------------------------------------
 ! R1    R(1,2)                  1.3999         estimate D2E/DX2                !
 ! R2    R(1,6)                  1.3999         estimate D2E/DX2                !
 ! R3    R(1,14)                 1.54           estimate D2E/DX2                !
 ! R4    R(2,3)                  1.3552         estimate D2E/DX2                !
 ! R5    R(2,7)                  1.07           estimate D2E/DX2                !
 ! R6    R(3,4)                  1.4029         estimate D2E/DX2                !
 ! R7    R(3,8)                  1.07           estimate D2E/DX2                !
 ! R8    R(4,5)                  1.4029         estimate D2E/DX2                !
 ! R9    R(4,11)                 1.4014         estimate D2E/DX2                !
 ! R10   R(5,6)                  1.3552         estimate D2E/DX2                !
 ! R11   R(5,9)                  1.07           estimate D2E/DX2                !
 ! R12   R(6,10)                 1.07           estimate D2E/DX2                !
 ! R13   R(11,12)                1.07           estimate D2E/DX2                !
 ! R14   R(11,13)                1.07           estimate D2E/DX2                !
 ! R15   R(14,15)                1.2584         estimate D2E/DX2                !
 ! R16   R(14,16)                1.43           estimate D2E/DX2                !
 ! R17   R(16,17)                0.96           estimate D2E/DX2                !
 ! A1    A(2,1,6)              119.891          estimate D2E/DX2                !
 ! A2    A(2,1,14)             120.0545         estimate D2E/DX2                !
 ! A3    A(6,1,14)             120.0545         estimate D2E/DX2                !
 ! A4    A(1,2,3)              120.0292         estimate D2E/DX2                !
 ! A5    A(1,2,7)              119.9853         estimate D2E/DX2                !
 ! A6    A(3,2,7)              119.9855         estimate D2E/DX2                !
 ! A7    A(2,3,4)              120.2928         estimate D2E/DX2                !
 ! A8    A(2,3,8)              119.8537         estimate D2E/DX2                !
 ! A9    A(4,3,8)              119.8535         estimate D2E/DX2                !
 ! A10   A(3,4,5)              119.3793         estimate D2E/DX2                !
 ! A11   A(3,4,11)             120.0793         estimate D2E/DX2                !
 ! A12   A(5,4,11)             120.0793         estimate D2E/DX2                !
 ! A13   A(4,5,6)              120.2928         estimate D2E/DX2                !
 ! A14   A(4,5,9)              119.8535         estimate D2E/DX2                !
 ! A15   A(6,5,9)              119.8537         estimate D2E/DX2                !
 ! A16   A(1,6,5)              120.0292         estimate D2E/DX2                !
 ! A17   A(1,6,10)             119.9853         estimate D2E/DX2                !
 ! A18   A(5,6,10)             119.9855         estimate D2E/DX2                !
 ! A19   A(4,11,12)            119.9886         estimate D2E/DX2                !
 ! A20   A(4,11,13)            119.9886         estimate D2E/DX2                !
 ! A21   A(12,11,13)           119.9886         estimate D2E/DX2                !
 ! A22   A(1,14,15)            120.0            estimate D2E/DX2                !
 ! A23   A(1,14,16)            120.0            estimate D2E/DX2                !
 ! A24   A(15,14,16)           120.0            estimate D2E/DX2                !
 ! A25   A(14,16,17)           109.4712         estimate D2E/DX2                !
 ! D1    D(6,1,2,3)             -0.6737         estimate D2E/DX2                !
 ! D2    D(6,1,2,7)            179.3005         estimate D2E/DX2                !
 ! D3    D(14,1,2,3)           179.4006         estimate D2E/DX2                !
 ! D4    D(14,1,2,7)            -0.6252         estimate D2E/DX2                !
 ! D5    D(2,1,6,5)              0.6737         estimate D2E/DX2                !
 ! D6    D(2,1,6,10)          -179.3005         estimate D2E/DX2                !
 ! D7    D(14,1,6,5)          -179.4006         estimate D2E/DX2                !
 ! D8    D(14,1,6,10)            0.6252         estimate D2E/DX2                !
 ! D9    D(2,1,14,15)           -0.0372         estimate D2E/DX2                !
 ! D10   D(2,1,14,16)          179.9628         estimate D2E/DX2                !
 ! D11   D(6,1,14,15)         -179.9628         estimate D2E/DX2                !
 ! D12   D(6,1,14,16)            0.0372         estimate D2E/DX2                !
 ! D13   D(1,2,3,4)             -1.3226         estimate D2E/DX2                !
 ! D14   D(1,2,3,8)            178.7063         estimate D2E/DX2                !
 ! D15   D(7,2,3,4)            178.7033         estimate D2E/DX2                !
 ! D16   D(7,2,3,8)             -1.2679         estimate D2E/DX2                !
 ! D17   D(2,3,4,5)              3.2905         estimate D2E/DX2                !
 ! D18   D(2,3,4,11)           175.498          estimate D2E/DX2                !
 ! D19   D(8,3,4,5)           -176.7383         estimate D2E/DX2                !
 ! D20   D(8,3,4,11)            -4.5308         estimate D2E/DX2                !
 ! D21   D(3,4,5,6)             -3.2905         estimate D2E/DX2                !
 ! D22   D(3,4,5,9)            176.7383         estimate D2E/DX2                !
 ! D23   D(11,4,5,6)          -175.498          estimate D2E/DX2                !
 ! D24   D(11,4,5,9)             4.5308         estimate D2E/DX2                !
 ! D25   D(3,4,11,12)          -83.9497         estimate D2E/DX2                !
 ! D26   D(3,4,11,13)           93.9239         estimate D2E/DX2                !
 ! D27   D(5,4,11,12)           88.2029         estimate D2E/DX2                !
 ! D28   D(5,4,11,13)          -93.9235         estimate D2E/DX2                !
 ! D29   D(4,5,6,1)              1.3226         estimate D2E/DX2                !
 ! D30   D(4,5,6,10)          -178.7033         estimate D2E/DX2                !
 ! D31   D(9,5,6,1)           -178.7063         estimate D2E/DX2                !
 ! D32   D(9,5,6,10)             1.2679         estimate D2E/DX2                !
 ! D33   D(1,14,16,17)        -150.0            estimate D2E/DX2                !
 ! D34   D(15,14,16,17)         30.0            estimate D2E/DX2                !
 --------------------------------------------------------------------------------
 Trust Radius=3.00D-01 FncErr=1.00D-07 GrdErr=1.00D-06 EigMax=2.50D+02 EigMin=1.00D-04
 Number of steps in this run=     86 maximum allowed number of steps=    102.
 GradGradGradGradGradGradGradGradGradGradGradGradGradGradGradGradGradGrad

                          Input orientation:                          
 ---------------------------------------------------------------------
 Center     Atomic      Atomic             Coordinates (Angstroms)
 Number     Number       Type             X           Y           Z
 ---------------------------------------------------------------------
      1          6           0        0.010012   -1.793396   -0.065598
      2          6           0        1.185706   -1.077294    0.188695
      3          6           0        1.158541    0.276862    0.234441
      4          6           0       -0.039120    0.968934    0.000438
      5          6           0       -1.221912    0.245207   -0.212481
      6          6           0       -1.195845   -1.108964   -0.258433
      7          1           0        2.106108   -1.599371    0.347421
      8          1           0        2.054625    0.820615    0.449535
      9          1           0       -2.148651    0.764719   -0.339615
     10          1           0       -2.097418   -1.655270   -0.441776
     11          6           0       -0.084098    2.362512    0.141295
     12          1           0       -0.236170    2.797828    1.106838
     13          1           0        0.067555    2.991372   -0.711017
     14          6           0        0.042822   -3.331639   -0.131399
     15          8           0        1.127228   -3.945879    0.042793
     16          8           0       -1.158992   -4.062009   -0.390446
     17          1           0       -1.111461   -4.919156    0.039251
 ---------------------------------------------------------------------
                    Distance matrix (angstroms):
                    1          2          3          4          5
     1  C    0.000000
     2  C    1.399901   0.000000
     3  C    2.386443   1.355201   0.000000
     4  C    2.763556   2.392214   1.402895   0.000000
     5  C    2.386443   2.776071   2.422251   1.402895   0.000000
     6  C    1.399901   2.423367   2.776071   2.392214   1.355201
     7  H    2.145193   1.070000   2.104970   3.364312   3.845995
     8  H    3.358401   2.103596   1.070000   2.146499   3.391911
     9  H    3.358401   3.845784   3.391911   2.146499   1.070000
    10  H    2.145193   3.392706   3.845995   3.364312   2.104970
    11  C    4.162118   3.667003   2.429560   1.401400   2.429560
    12  H    4.744950   4.228627   3.010243   2.146580   3.037790
    13  H    4.828445   4.314370   3.074525   2.146580   3.074523
    14  C    1.540000   2.547689   3.794727   4.303374   3.794727
    15  O    2.427572   2.872889   4.227205   5.051491   4.811323
    16  O    2.572683   3.839470   4.958553   5.168877   4.311349
    17  H    3.322510   4.478752   5.673589   5.985067   5.171674
                    6          7          8          9         10
     6  C    0.000000
     7  H    3.392706   0.000000
     8  H    3.845784   2.422687   0.000000
     9  H    2.103596   4.915680   4.277080   0.000000
    10  H    1.070000   4.277335   4.915680   2.422687   0.000000
    11  C    3.667003   4.531667   2.654542   2.654542   4.531667
    12  H    4.248290   5.039677   3.096637   3.143778   5.068781
    13  H    4.314368   5.133314   3.163466   3.163462   5.133312
    14  C    2.547689   2.736270   4.650382   4.650382   2.736270
    15  O    3.679061   2.560685   4.872882   5.750422   3.984977
    16  O    2.956223   4.155708   5.905330   4.927404   2.583731
    17  H    3.822734   4.633433   6.567908   5.790141   3.443319
                   11         12         13         14         15
    11  C    0.000000
    12  H    1.070000   0.000000
    13  H    1.070000   1.853188   0.000000
    14  C    5.702090   6.259508   6.349571   0.000000
    15  O    6.424392   6.961942   7.058088   1.258400   0.000000
    16  O    6.535488   7.081725   7.166406   1.430000   2.329803
    17  H    7.354494   7.839498   8.033022   1.970203   2.441108
                   16         17
    16  O    0.000000
    17  H    0.960000   0.000000
 Stoichiometry    C8H7O2(1+)
 Framework group  C1[X(C8H7O2)]
 Deg. of freedom    45
 Full point group                 C1      NOp   1
 Largest Abelian subgroup         C1      NOp   1
 Largest concise Abelian subgroup C1      NOp   1
                         Standard orientation:                         
 ---------------------------------------------------------------------
 Center     Atomic      Atomic             Coordinates (Angstroms)
 Number     Number       Type             X           Y           Z
 ---------------------------------------------------------------------
      1          6           0        0.587611    0.050772   -0.007236
      2          6           0       -0.151521    1.239592    0.003489
      3          6           0       -1.506009    1.196131   -0.003012
      4          6           0       -2.174258   -0.036546   -0.048439
      5          6           0       -1.429261   -1.224863   -0.016906
      6          6           0       -0.074737   -1.182519   -0.010411
      7          1           0        0.353191    2.182978    0.017244
      8          1           0       -2.068257    2.106036    0.026167
      9          1           0       -1.932739   -2.168826    0.001633
     10          1           0        0.488717   -2.092140   -0.007291
     11          6           0       -3.572140   -0.081369    0.040099
     12          1           0       -4.048053   -0.067547    0.998335
     13          1           0       -4.164303   -0.095030   -0.850999
     14          6           0        2.126823    0.099605   -0.013800
     15          8           0        2.721170    1.208798   -0.010231
     16          8           0        2.880696   -1.115497   -0.023952
     17          1           0        3.717462   -0.976701    0.425668
 ---------------------------------------------------------------------
 Rotational constants (GHZ):           3.7363393           0.8028779           0.6643068
 Standard basis: def2TZVP (5D, 7F)
 There are   402 symmetry adapted cartesian basis functions of A   symmetry.
 There are   352 symmetry adapted basis functions of A   symmetry.
   352 basis functions,   566 primitive gaussians,   402 cartesian basis functions
    35 alpha electrons       35 beta electrons
       nuclear repulsion energy       470.6362536106 Hartrees.
 NAtoms=   17 NActive=   17 NUniq=   17 SFac= 1.00D+00 NAtFMM=   60 NAOKFM=F Big=F
 Integral buffers will be    131072 words long.
 Raffenetti 2 integral format.
 Two-electron integral symmetry is turned on.
 One-electron integrals computed using PRISM.
   1 Symmetry operations used in ECPInt.
 ECPInt:  NShTT=    9591 NPrTT=   29644 LenC2=    9133 LenP2D=   21981.
 LDataN:  DoStor=T MaxTD1= 6 Len=  172
 NBasis=   352 RedAO= T EigKep=  7.48D-06  NBF=   352
 NBsUse=   352 1.00D-06 EigRej= -1.00D+00 NBFU=   352
 ExpMin= 9.52D-02 ExpMax= 2.70D+04 ExpMxC= 9.22D+02 IAcc=3 IRadAn=         5 AccDes= 0.00D+00
 Harris functional with IExCor=  402 and IRadAn=       5 diagonalized for initial guess.
 HarFok:  IExCor=  402 AccDes= 0.00D+00 IRadAn=         5 IDoV= 1 UseB2=F ITyADJ=14
 ICtDFT=  3500011 ScaDFX=  1.000000  1.000000  1.000000  1.000000
 FoFCou: FMM=F IPFlag=           0 FMFlag=      100000 FMFlg1=           0
         NFxFlg=           0 DoJE=T BraDBF=F KetDBF=T FulRan=T
         wScrn=  0.000000 ICntrl=       500 IOpCl=  0 I1Cent=   200000004 NGrid=           0
         NMat0=    1 NMatS0=      1 NMatT0=    0 NMatD0=    1 NMtDS0=    0 NMtDT0=    0
 Petite list used in FoFCou.
 Requested convergence on RMS density matrix=1.00D-08 within 128 cycles.
 Requested convergence on MAX density matrix=1.00D-06.
 Requested convergence on             energy=1.00D-06.
 No special actions if energy rises.
 Integral accuracy reduced to 1.0D-05 until final iterations.
 EnCoef did     1 forward-backward iterations
 EnCoef did   100 forward-backward iterations
 Problem detected with inexpensive integrals.
 Switching to full accuracy and repeating last cycle.
 EnCoef did   100 forward-backward iterations
 EnCoef did     2 forward-backward iterations
 EnCoef did     6 forward-backward iterations
 EnCoef did     3 forward-backward iterations
 Restarting incremental Fock formation.
 SCF Done:  E(RB3LYP) =  -459.308089870     A.U. after   27 cycles
            NFock= 27  Conv=0.20D-08     -V/T= 2.0050

 **********************************************************************

            Population analysis using the SCF density.

 **********************************************************************

 Orbital symmetries:
       Occupied  (A) (A) (A) (A) (A) (A) (A) (A) (A) (A) (A) (A)
                 (A) (A) (A) (A) (A) (A) (A) (A) (A) (A) (A) (A)
                 (A) (A) (A) (A) (A) (A) (A) (A) (A) (A) (A)
       Virtual   (A) (A) (A) (A) (A) (A) (A) (A) (A) (A) (A) (A)
                 (A) (A) (A) (A) (A) (A) (A) (A) (A) (A) (A) (A)
                 (A) (A) (A) (A) (A) (A) (A) (A) (A) (A) (A) (A)
                 (A) (A) (A) (A) (A) (A) (A) (A) (A) (A) (A) (A)
                 (A) (A) (A) (A) (A) (A) (A) (A) (A) (A) (A) (A)
                 (A) (A) (A) (A) (A) (A) (A) (A) (A) (A) (A) (A)
                 (A) (A) (A) (A) (A) (A) (A) (A) (A) (A) (A) (A)
                 (A) (A) (A) (A) (A) (A) (A) (A) (A) (A) (A) (A)
                 (A) (A) (A) (A) (A) (A) (A) (A) (A) (A) (A) (A)
                 (A) (A) (A) (A) (A) (A) (A) (A) (A) (A) (A) (A)
                 (A) (A) (A) (A) (A) (A) (A) (A) (A) (A) (A) (A)
                 (A) (A) (A) (A) (A) (A) (A) (A) (A) (A) (A) (A)
                 (A) (A) (A) (A) (A) (A) (A) (A) (A) (A) (A) (A)
                 (A) (A) (A) (A) (A) (A) (A) (A) (A) (A) (A) (A)
                 (A) (A) (A) (A) (A) (A) (A) (A) (A) (A) (A) (A)
                 (A) (A) (A) (A) (A) (A) (A) (A) (A) (A) (A) (A)
                 (A) (A) (A) (A) (A) (A) (A) (A) (A) (A) (A) (A)
                 (A) (A) (A) (A) (A) (A) (A) (A) (A) (A) (A) (A)
                 (A) (A) (A) (A) (A) (A) (A) (A) (A) (A) (A) (A)
                 (A) (A) (A) (A) (A) (A) (A) (A) (A) (A) (A) (A)
                 (A) (A) (A) (A) (A) (A) (A) (A) (A) (A) (A) (A)
                 (A) (A) (A) (A) (A) (A) (A) (A) (A) (A) (A) (A)
                 (A) (A) (A) (A) (A) (A) (A) (A) (A) (A) (A) (A)
                 (A) (A) (A) (A) (A) (A) (A) (A) (A) (A) (A) (A)
                 (A) (A) (A) (A) (A) (A) (A) (A) (A) (A) (A) (A)
                 (A) (A) (A) (A) (A) (A) (A) (A) (A) (A) (A) (A)
                 (A) (A) (A) (A) (A)
 The electronic state is 1-A.
 Alpha  occ. eigenvalues --  -19.30672 -19.27188 -10.52281 -10.46990 -10.40876
 Alpha  occ. eigenvalues --  -10.38247 -10.38088 -10.38051 -10.36362 -10.36265
 Alpha  occ. eigenvalues --   -1.21618  -1.14179  -1.08672  -1.01420  -0.95472
 Alpha  occ. eigenvalues --   -0.91641  -0.82135  -0.80887  -0.76013  -0.72850
 Alpha  occ. eigenvalues --   -0.72462  -0.68168  -0.66149  -0.62747  -0.62277
 Alpha  occ. eigenvalues --   -0.61624  -0.58465  -0.57397  -0.55696  -0.54172
 Alpha  occ. eigenvalues --   -0.52231  -0.46449  -0.45578  -0.44391  -0.42455
 Alpha virt. eigenvalues --   -0.39295  -0.23917  -0.19655  -0.14423  -0.13002
 Alpha virt. eigenvalues --   -0.09895  -0.07817  -0.07501  -0.07451  -0.04473
 Alpha virt. eigenvalues --   -0.03749  -0.01992  -0.01879  -0.01426  -0.00240
 Alpha virt. eigenvalues --    0.01741   0.02783   0.02971   0.03910   0.06590
 Alpha virt. eigenvalues --    0.07735   0.07785   0.08134   0.08623   0.09995
 Alpha virt. eigenvalues --    0.11203   0.12925   0.13791   0.14784   0.15488
 Alpha virt. eigenvalues --    0.16107   0.16960   0.17500   0.18328   0.20031
 Alpha virt. eigenvalues --    0.21601   0.22708   0.23159   0.24725   0.25169
 Alpha virt. eigenvalues --    0.26292   0.26644   0.26880   0.27655   0.28158
 Alpha virt. eigenvalues --    0.30058   0.30955   0.31574   0.33011   0.34359
 Alpha virt. eigenvalues --    0.34942   0.36051   0.36864   0.38043   0.39424
 Alpha virt. eigenvalues --    0.42392   0.43707   0.44581   0.46883   0.48602
 Alpha virt. eigenvalues --    0.49217   0.49797   0.50405   0.54021   0.55193
 Alpha virt. eigenvalues --    0.55960   0.56279   0.59629   0.60272   0.60783
 Alpha virt. eigenvalues --    0.61344   0.63120   0.63817   0.65434   0.66314
 Alpha virt. eigenvalues --    0.66733   0.68030   0.71811   0.73916   0.75773
 Alpha virt. eigenvalues --    0.75984   0.76910   0.79771   0.80788   0.82027
 Alpha virt. eigenvalues --    0.85234   0.85616   0.86646   0.89692   0.91571
 Alpha virt. eigenvalues --    0.95732   0.97570   0.98517   1.00677   1.04501
 Alpha virt. eigenvalues --    1.05791   1.06603   1.08201   1.08933   1.10825
 Alpha virt. eigenvalues --    1.12432   1.16963   1.18912   1.19370   1.20357
 Alpha virt. eigenvalues --    1.21457   1.27016   1.27911   1.28458   1.30139
 Alpha virt. eigenvalues --    1.30851   1.31992   1.34518   1.35088   1.35730
 Alpha virt. eigenvalues --    1.39832   1.40765   1.41751   1.42326   1.43161
 Alpha virt. eigenvalues --    1.44798   1.46626   1.48021   1.50055   1.52538
 Alpha virt. eigenvalues --    1.52918   1.54256   1.55797   1.60377   1.62566
 Alpha virt. eigenvalues --    1.64988   1.67097   1.69205   1.71449   1.72494
 Alpha virt. eigenvalues --    1.73811   1.75458   1.78539   1.79048   1.80727
 Alpha virt. eigenvalues --    1.82399   1.83007   1.84901   1.86223   1.88986
 Alpha virt. eigenvalues --    1.92424   1.95630   1.96596   1.99024   2.01888
 Alpha virt. eigenvalues --    2.04089   2.05996   2.07908   2.10543   2.10866
 Alpha virt. eigenvalues --    2.11692   2.13516   2.19735   2.21063   2.22051
 Alpha virt. eigenvalues --    2.25137   2.27132   2.28718   2.30211   2.36457
 Alpha virt. eigenvalues --    2.37137   2.38439   2.40778   2.42071   2.43321
 Alpha virt. eigenvalues --    2.46680   2.47934   2.49042   2.50034   2.51076
 Alpha virt. eigenvalues --    2.51839   2.53563   2.54668   2.59241   2.60941
 Alpha virt. eigenvalues --    2.61988   2.63047   2.63710   2.64558   2.66453
 Alpha virt. eigenvalues --    2.66633   2.67993   2.70344   2.72136   2.72763
 Alpha virt. eigenvalues --    2.74982   2.75621   2.77192   2.78485   2.79405
 Alpha virt. eigenvalues --    2.84374   2.85315   2.86287   2.88111   2.90467
 Alpha virt. eigenvalues --    2.91706   2.92379   2.94652   2.95345   2.96151
 Alpha virt. eigenvalues --    2.96955   2.97571   2.98892   2.99645   3.00498
 Alpha virt. eigenvalues --    3.02367   3.06599   3.07661   3.08295   3.10302
 Alpha virt. eigenvalues --    3.12335   3.12885   3.14015   3.15860   3.16641
 Alpha virt. eigenvalues --    3.19396   3.20972   3.21086   3.21907   3.24612
 Alpha virt. eigenvalues --    3.25729   3.27225   3.28618   3.29579   3.31165
 Alpha virt. eigenvalues --    3.33632   3.35021   3.40137   3.41303   3.43321
 Alpha virt. eigenvalues --    3.45431   3.47453   3.55843   3.56827   3.60043
 Alpha virt. eigenvalues --    3.61612   3.64246   3.66099   3.67526   3.69246
 Alpha virt. eigenvalues --    3.71124   3.77438   3.78606   3.80690   3.85570
 Alpha virt. eigenvalues --    3.89539   3.91119   3.96161   3.99649   4.03343
 Alpha virt. eigenvalues --    4.04678   4.04717   4.05766   4.08996   4.10308
 Alpha virt. eigenvalues --    4.16867   4.20182   4.25118   4.26188   4.32134
 Alpha virt. eigenvalues --    4.36506   4.44754   4.45721   4.48627   4.49768
 Alpha virt. eigenvalues --    4.51598   4.58066   4.69669   4.76729   4.77151
 Alpha virt. eigenvalues --    4.82933   4.84781   5.00519   5.04069   5.05288
 Alpha virt. eigenvalues --    5.07044   5.08545   5.15312   5.20141   5.23530
 Alpha virt. eigenvalues --    5.24944   5.31514   5.32430   5.38959   5.49414
 Alpha virt. eigenvalues --    5.51927   5.62777   5.71350   5.84515   6.06541
 Alpha virt. eigenvalues --    6.10896   6.18140   6.28551   6.33681   6.43837
 Alpha virt. eigenvalues --    6.50293   6.61236   6.68251   6.80159   6.85566
 Alpha virt. eigenvalues --    6.94785   7.07539  21.76514  22.09951  22.47122
 Alpha virt. eigenvalues --   22.57263  22.63457  22.66123  22.78862  23.13900
 Alpha virt. eigenvalues --   43.57923  43.68660
          Condensed to atoms (all electrons):
               1          2          3          4          5          6
     1  C    5.284139   0.452876  -0.015426  -0.063520  -0.016662   0.407842
     2  C    0.452876   5.026010   0.425346  -0.000547  -0.035917  -0.074767
     3  C   -0.015426   0.425346   5.033851   0.364052   0.010334  -0.050977
     4  C   -0.063520  -0.000547   0.364052   4.938224   0.383600  -0.010582
     5  C   -0.016662  -0.035917   0.010334   0.383600   5.017769   0.433096
     6  C    0.407842  -0.074767  -0.050977  -0.010582   0.433096   5.002155
     7  H   -0.028538   0.418016  -0.041106   0.008114  -0.000823   0.005102
     8  H    0.007482  -0.019116   0.430640  -0.059991   0.006510  -0.001581
     9  H    0.007214  -0.001511   0.006970  -0.060083   0.426025  -0.017126
    10  H   -0.025780   0.006205  -0.001785   0.008975  -0.041827   0.417459
    11  C   -0.004796   0.014560  -0.077316   0.439046  -0.070684   0.009696
    12  H    0.000485  -0.000528   0.000249  -0.028266   0.002692  -0.000846
    13  H    0.000005   0.000374  -0.001272  -0.046395  -0.004382   0.000684
    14  C    0.208803  -0.099938   0.018102  -0.003791  -0.001674  -0.003166
    15  O   -0.146144   0.026328   0.004861  -0.000294  -0.000353   0.006100
    16  O   -0.136219   0.003860   0.000273  -0.000004   0.000003   0.028789
    17  H    0.017379  -0.000358  -0.000015   0.000018  -0.000060  -0.002975
               7          8          9         10         11         12
     1  C   -0.028538   0.007482   0.007214  -0.025780  -0.004796   0.000485
     2  C    0.418016  -0.019116  -0.001511   0.006205   0.014560  -0.000528
     3  C   -0.041106   0.430640   0.006970  -0.001785  -0.077316   0.000249
     4  C    0.008114  -0.059991  -0.060083   0.008975   0.439046  -0.028266
     5  C   -0.000823   0.006510   0.426025  -0.041827  -0.070684   0.002692
     6  C    0.005102  -0.001581  -0.017126   0.417459   0.009696  -0.000846
     7  H    0.445246  -0.004824   0.000057  -0.000134  -0.000135  -0.000001
     8  H   -0.004824   0.478740  -0.000082   0.000034  -0.007873   0.000492
     9  H    0.000057  -0.000082   0.480646  -0.005135  -0.005840   0.000436
    10  H   -0.000134   0.000034  -0.005135   0.450415  -0.000128   0.000000
    11  C   -0.000135  -0.007873  -0.005840  -0.000128   4.865494   0.367739
    12  H   -0.000001   0.000492   0.000436   0.000000   0.367739   0.446607
    13  H    0.000004  -0.000361  -0.000365   0.000006   0.394434  -0.025579
    14  C   -0.011190  -0.000218  -0.000205  -0.008850  -0.000198  -0.000006
    15  O    0.017116  -0.000067   0.000008   0.000280  -0.000009  -0.000000
    16  O    0.000585   0.000001  -0.000076   0.011267  -0.000004  -0.000000
    17  H   -0.000058  -0.000000  -0.000002  -0.000547   0.000000  -0.000000
              13         14         15         16         17
     1  C    0.000005   0.208803  -0.146144  -0.136219   0.017379
     2  C    0.000374  -0.099938   0.026328   0.003860  -0.000358
     3  C   -0.001272   0.018102   0.004861   0.000273  -0.000015
     4  C   -0.046395  -0.003791  -0.000294  -0.000004   0.000018
     5  C   -0.004382  -0.001674  -0.000353   0.000003  -0.000060
     6  C    0.000684  -0.003166   0.006100   0.028789  -0.002975
     7  H    0.000004  -0.011190   0.017116   0.000585  -0.000058
     8  H   -0.000361  -0.000218  -0.000067   0.000001  -0.000000
     9  H   -0.000365  -0.000205   0.000008  -0.000076  -0.000002
    10  H    0.000006  -0.008850   0.000280   0.011267  -0.000547
    11  C    0.394434  -0.000198  -0.000009  -0.000004   0.000000
    12  H   -0.025579  -0.000006  -0.000000  -0.000000  -0.000000
    13  H    0.443840  -0.000001  -0.000000   0.000000   0.000000
    14  C   -0.000001   4.546550   0.621250   0.404418  -0.018528
    15  O   -0.000000   0.621250   7.816223  -0.073776   0.003196
    16  O    0.000000   0.404418  -0.073776   7.849419   0.288462
    17  H    0.000000  -0.018528   0.003196   0.288462   0.361439
 Mulliken charges:
               1
     1  C    0.050859
     2  C   -0.140892
     3  C   -0.106781
     4  C    0.131443
     5  C   -0.107647
     6  C   -0.148903
     7  H    0.192571
     8  H    0.170214
     9  H    0.169069
    10  H    0.189544
    11  C    0.076015
    12  H    0.236526
    13  H    0.239008
    14  C    0.348641
    15  O   -0.274718
    16  O   -0.376998
    17  H    0.352049
 Sum of Mulliken charges =   1.00000
 Mulliken charges with hydrogens summed into heavy atoms:
               1
     1  C    0.050859
     2  C    0.051679
     3  C    0.063433
     4  C    0.131443
     5  C    0.061422
     6  C    0.040642
    11  C    0.551549
    14  C    0.348641
    15  O   -0.274718
    16  O   -0.024949
 Electronic spatial extent (au):  <R**2>=           1578.2009
 Charge=              1.0000 electrons
 Dipole moment (field-independent basis, Debye):
    X=            -11.0254    Y=             -1.4770    Z=              0.9443  Tot=             11.1639
 Quadrupole moment (field-independent basis, Debye-Ang):
   XX=             -2.4799   YY=            -48.1715   ZZ=            -55.3532
   XY=             -4.8736   XZ=              2.6017   YZ=             -0.7781
 Traceless Quadrupole moment (field-independent basis, Debye-Ang):
   XX=             32.8549   YY=            -12.8366   ZZ=            -20.0183
   XY=             -4.8736   XZ=              2.6017   YZ=             -0.7781
 Octapole moment (field-independent basis, Debye-Ang**2):
  XXX=           -123.2864  YYY=             -1.4567  ZZZ=              1.1573  XYY=            -12.4557
  XXY=            -25.2941  XXZ=             14.6880  XZZ=              1.6603  YZZ=             -0.4105
  YYZ=              1.1519  XYZ=             -3.3827
 Hexadecapole moment (field-independent basis, Debye-Ang**3):
 XXXX=           -675.0168 YYYY=           -343.4722 ZZZZ=            -62.3147 XXXY=            -81.1104
 XXXZ=             46.6796 YYYX=             -8.3437 YYYZ=             -0.6632 ZZZX=             -0.2736
 ZZZY=             -0.6658 XXYY=           -309.5306 XXZZ=           -233.4381 YYZZ=            -80.6199
 XXYZ=            -13.7022 YYXZ=              3.1749 ZZXY=             -1.0194
 N-N= 4.706362536106D+02 E-N=-2.000713466692D+03  KE= 4.570150738063D+02
   1 Symmetry operations used in ECPInt.
 ECPInt:  NShTT=    9591 NPrTT=   29644 LenC2=    9133 LenP2D=   21981.
 LDataN:  DoStor=T MaxTD1= 7 Len=  274
 Calling FoFJK, ICntrl=      2127 FMM=F ISym2X=0 I1Cent= 0 IOpClX= 0 NMat=1 NMatS=1 NMatT=0.
 ***** Axes restored to original set *****
 -------------------------------------------------------------------
 Center     Atomic                   Forces (Hartrees/Bohr)
 Number     Number              X              Y              Z
 -------------------------------------------------------------------
      1        6          -0.019914959   -0.026691401   -0.008393541
      2        6          -0.015493380   -0.026956190   -0.004278540
      3        6           0.006698598    0.019449621    0.006931161
      4        6          -0.001935575   -0.011479134    0.002472864
      5        6          -0.007644940    0.026175104   -0.007100984
      6        6           0.021658507   -0.027695906    0.005012721
      7        1           0.008111053   -0.006251872   -0.000503046
      8        1           0.006752278    0.003795164    0.000833103
      9        1          -0.007107287    0.004209175   -0.001825958
     10        1          -0.007892702   -0.004574952   -0.001798133
     11        6           0.002660315   -0.009190679   -0.001929767
     12        1           0.001713659    0.010627060    0.012248524
     13        1          -0.004405238    0.013791591   -0.010151263
     14        6           0.044093933   -0.056499405    0.007218989
     15        8          -0.068958863    0.041709026   -0.007553980
     16        8           0.032756523    0.059728275    0.008883473
     17        1           0.008908076   -0.010145476   -0.000065624
 -------------------------------------------------------------------
 Cartesian Forces:  Max     0.068958863 RMS     0.020991375

 GradGradGradGradGradGradGradGradGradGradGradGradGradGradGradGradGradGrad
 Berny optimization.
 FormGI is forming the generalized inverse of G from B-inverse, IUseBI=4.
 Internal  Forces:  Max     0.080828583 RMS     0.014730212
 Search for a local minimum.
 Step number   1 out of a maximum of   86
 All quantities printed in internal units (Hartrees-Bohrs-Radians)
 Mixed Optimization -- RFO/linear search
 Second derivative matrix not updated -- first step.
 ITU=  0
     Eigenvalues ---    0.00237   0.00590   0.01295   0.01540   0.02068
     Eigenvalues ---    0.02070   0.02075   0.02094   0.02247   0.02273
     Eigenvalues ---    0.02376   0.02377   0.02467   0.02474   0.16000
     Eigenvalues ---    0.16000   0.16000   0.16000   0.16000   0.16000
     Eigenvalues ---    0.16000   0.21990   0.22930   0.23955   0.24764
     Eigenvalues ---    0.25000   0.25000   0.25000   0.28519   0.37230
     Eigenvalues ---    0.37230   0.37230   0.37230   0.37230   0.37230
     Eigenvalues ---    0.40989   0.41498   0.43217   0.45389   0.45403
     Eigenvalues ---    0.45409   0.50923   0.53930   0.55473   0.80209
 RFO step:  Lambda=-3.57605779D-02 EMin= 2.36824225D-03
 Linear search not attempted -- first point.
 Iteration  1 RMS(Cart)=  0.05985833 RMS(Int)=  0.00230159
 Iteration  2 RMS(Cart)=  0.00215302 RMS(Int)=  0.00008313
 Iteration  3 RMS(Cart)=  0.00001509 RMS(Int)=  0.00008257
 Iteration  4 RMS(Cart)=  0.00000000 RMS(Int)=  0.00008257
 Variable       Old X    -DE/DX   Delta X   Delta X   Delta X     New X
                                 (Linear)    (Quad)   (Total)
    R1        2.64543  -0.00748   0.00000  -0.01699  -0.01705   2.62838
    R2        2.64543  -0.00767   0.00000  -0.01717  -0.01723   2.62820
    R3        2.91018  -0.03476   0.00000  -0.10830  -0.10830   2.80188
    R4        2.56096   0.02677   0.00000   0.04639   0.04639   2.60734
    R5        2.02201   0.00995   0.00000   0.02439   0.02439   2.04640
    R6        2.65109   0.01163   0.00000   0.02546   0.02553   2.67662
    R7        2.02201   0.00775   0.00000   0.01899   0.01899   2.04100
    R8        2.65109   0.00857   0.00000   0.01939   0.01945   2.67054
    R9        2.64826   0.01516   0.00000   0.03096   0.03096   2.67922
   R10        2.56096   0.03067   0.00000   0.05351   0.05351   2.61447
   R11        2.02201   0.00842   0.00000   0.02063   0.02063   2.04263
   R12        2.02201   0.00929   0.00000   0.02278   0.02278   2.04478
   R13        2.02201   0.01513   0.00000   0.03708   0.03708   2.05909
   R14        2.02201   0.01557   0.00000   0.03815   0.03815   2.06016
   R15        2.37803  -0.08083   0.00000  -0.09647  -0.09647   2.28156
   R16        2.70231  -0.06194   0.00000  -0.13898  -0.13898   2.56333
   R17        1.81414   0.00947   0.00000   0.01604   0.01604   1.83017
    A1        2.09249   0.00416   0.00000   0.00905   0.00889   2.10139
    A2        2.09535  -0.00987   0.00000  -0.03181  -0.03173   2.06362
    A3        2.09535   0.00572   0.00000   0.02276   0.02284   2.11818
    A4        2.09490   0.00275   0.00000   0.00734   0.00724   2.10215
    A5        2.09414  -0.00307   0.00000  -0.01233  -0.01228   2.08186
    A6        2.09414   0.00032   0.00000   0.00499   0.00503   2.09917
    A7        2.09950  -0.00479   0.00000  -0.01577  -0.01575   2.08375
    A8        2.09184   0.00219   0.00000   0.00685   0.00680   2.09865
    A9        2.09184   0.00260   0.00000   0.00891   0.00886   2.10070
   A10        2.08356   0.00093   0.00000   0.01005   0.01010   2.09366
   A11        2.09578   0.00038   0.00000  -0.00112  -0.00125   2.09453
   A12        2.09578  -0.00118   0.00000  -0.00660  -0.00670   2.08908
   A13        2.09950  -0.00637   0.00000  -0.02078  -0.02075   2.07875
   A14        2.09184   0.00308   0.00000   0.00985   0.00982   2.10166
   A15        2.09184   0.00329   0.00000   0.01094   0.01091   2.10275
   A16        2.09490   0.00337   0.00000   0.01093   0.01082   2.10572
   A17        2.09414  -0.00149   0.00000  -0.00448  -0.00445   2.08969
   A18        2.09414  -0.00188   0.00000  -0.00644  -0.00641   2.08773
   A19        2.09420   0.00260   0.00000   0.01359   0.01334   2.10754
   A20        2.09420   0.00464   0.00000   0.02402   0.02378   2.11797
   A21        2.09420  -0.00716   0.00000  -0.03629  -0.03653   2.05767
   A22        2.09440   0.01059   0.00000   0.03705   0.03702   2.13142
   A23        2.09440  -0.02775   0.00000  -0.09709  -0.09712   1.99728
   A24        2.09440   0.01716   0.00000   0.06005   0.06002   2.15441
   A25        1.91063  -0.01049   0.00000  -0.05357  -0.05357   1.85707
    D1       -0.01176   0.00082   0.00000   0.01457   0.01465   0.00290
    D2        3.12938   0.00110   0.00000   0.01939   0.01936  -3.13445
    D3        3.13113   0.00071   0.00000   0.01208   0.01220  -3.13985
    D4       -0.01091   0.00098   0.00000   0.01689   0.01691   0.00599
    D5        0.01176   0.00011   0.00000   0.00079   0.00088   0.01264
    D6       -3.12938  -0.00053   0.00000  -0.00990  -0.00989  -3.13927
    D7       -3.13113   0.00021   0.00000   0.00325   0.00337  -3.12776
    D8        0.01091  -0.00042   0.00000  -0.00745  -0.00740   0.00351
    D9       -0.00065   0.00034   0.00000   0.00927   0.00929   0.00864
   D10        3.14094   0.00089   0.00000   0.02237   0.02233  -3.11992
   D11       -3.14094   0.00022   0.00000   0.00678   0.00683  -3.13411
   D12        0.00065   0.00077   0.00000   0.01988   0.01986   0.02051
   D13       -0.02308  -0.00066   0.00000  -0.01087  -0.01091  -0.03399
   D14        3.11901   0.00014   0.00000   0.00280   0.00268   3.12169
   D15        3.11896  -0.00094   0.00000  -0.01568  -0.01565   3.10331
   D16       -0.02213  -0.00013   0.00000  -0.00201  -0.00206  -0.02419
   D17        0.05743  -0.00035   0.00000  -0.00719  -0.00740   0.05003
   D18        3.06302   0.00064   0.00000   0.01177   0.01166   3.07468
   D19       -3.08467  -0.00116   0.00000  -0.02086  -0.02100  -3.10567
   D20       -0.07908  -0.00016   0.00000  -0.00191  -0.00194  -0.08102
   D21       -0.05743   0.00133   0.00000   0.02276   0.02262  -0.03481
   D22        3.08467   0.00090   0.00000   0.01540   0.01536   3.10002
   D23       -3.06302   0.00021   0.00000   0.00336   0.00320  -3.05982
   D24        0.07908  -0.00022   0.00000  -0.00400  -0.00407   0.07501
   D25       -1.46520   0.00253   0.00000   0.04499   0.04503  -1.42017
   D26        1.63928   0.00480   0.00000   0.08521   0.08525   1.72453
   D27        1.53943   0.00370   0.00000   0.06539   0.06535   1.60478
   D28       -1.63927   0.00597   0.00000   0.10562   0.10558  -1.53370
   D29        0.02308  -0.00116   0.00000  -0.01947  -0.01946   0.00362
   D30       -3.11896  -0.00052   0.00000  -0.00877  -0.00870  -3.12766
   D31       -3.11901  -0.00072   0.00000  -0.01211  -0.01219  -3.13121
   D32        0.02213  -0.00009   0.00000  -0.00141  -0.00143   0.02070
   D33       -2.61799  -0.00685   0.00000  -0.14163  -0.14169  -2.75968
   D34        0.52360  -0.00631   0.00000  -0.12853  -0.12846   0.39513
         Item               Value     Threshold  Converged?
 Maximum Force            0.080829     0.000015     NO 
 RMS     Force            0.014730     0.000010     NO 
 Maximum Displacement     0.279461     0.000060     NO 
 RMS     Displacement     0.060275     0.000040     NO 
 Predicted change in Energy=-2.040664D-02
 GradGradGradGradGradGradGradGradGradGradGradGradGradGradGradGradGradGrad

                          Input orientation:                          
 ---------------------------------------------------------------------
 Center     Atomic      Atomic             Coordinates (Angstroms)
 Number     Number       Type             X           Y           Z
 ---------------------------------------------------------------------
      1          6           0       -0.001845   -1.829571   -0.053654
      2          6           0        1.174307   -1.128254    0.189983
      3          6           0        1.167900    0.250443    0.243402
      4          6           0       -0.040915    0.949638    0.006558
      5          6           0       -1.237568    0.233221   -0.221180
      6          6           0       -1.198998   -1.149457   -0.249978
      7          1           0        2.097433   -1.675876    0.333639
      8          1           0        2.079575    0.791047    0.451023
      9          1           0       -2.171175    0.758759   -0.364578
     10          1           0       -2.107983   -1.706017   -0.436594
     11          6           0       -0.081277    2.360746    0.137932
     12          1           0       -0.187799    2.826325    1.117305
     13          1           0       -0.010171    3.013675   -0.732204
     14          6           0        0.060800   -3.310261   -0.098474
     15          8           0        1.090953   -3.914834    0.077509
     16          8           0       -1.123730   -3.914124   -0.367185
     17          1           0       -1.050579   -4.820386   -0.033561
 ---------------------------------------------------------------------
                    Distance matrix (angstroms):
                    1          2          3          4          5
     1  C    0.000000
     2  C    1.390876   0.000000
     3  C    2.404787   1.379747   0.000000
     4  C    2.780136   2.414134   1.416404   0.000000
     5  C    2.410433   2.799966   2.449981   1.413187   0.000000
     6  C    1.390782   2.413834   2.793806   2.411052   1.383516
     7  H    2.140230   1.082907   2.140766   3.401887   3.882616
     8  H    3.384471   2.138076   1.080051   2.172366   3.430228
     9  H    3.391477   3.880800   3.431828   2.170757   1.080914
    10  H    2.144231   3.391141   3.875763   3.394357   2.136509
    11  C    4.195446   3.708413   2.454576   1.417785   2.447924
    12  H    4.804486   4.284152   3.039209   2.185700   3.101249
    13  H    4.890555   4.405564   3.158339   2.192478   3.081976
    14  C    1.482693   2.466629   3.744485   4.262408   3.775855
    15  O    2.357908   2.790093   4.169289   4.994922   4.766296
    16  O    2.387947   3.654105   4.792494   4.996835   4.151475
    17  H    3.169420   4.316472   5.541811   5.857833   5.060544
                    6          7          8          9         10
     6  C    0.000000
     7  H    3.388832   0.000000
     8  H    3.873758   2.469778   0.000000
     9  H    2.144656   4.963463   4.328409   0.000000
    10  H    1.082053   4.275476   4.955687   2.466637   0.000000
    11  C    3.704227   4.591230   2.689101   2.680775   4.579976
    12  H    4.324215   5.109425   3.118857   3.225615   5.161767
    13  H    4.356320   5.250704   3.272176   3.144795   5.173364
    14  C    2.505817   2.646849   4.604143   4.648597   2.718740
    15  O    3.605334   2.468104   4.823090   5.716589   3.921271
    16  O    2.768174   3.984570   5.750588   4.788839   2.418534
    17  H    3.680296   4.464612   6.443669   5.700190   3.313583
                   11         12         13         14         15
    11  C    0.000000
    12  H    1.089624   0.000000
    13  H    1.090188   1.867440   0.000000
    14  C    5.677710   6.260800   6.356006   0.000000
    15  O    6.384408   6.939712   7.062035   1.207349   0.000000
    16  O    6.380897   6.965151   7.026212   1.356454   2.258888
    17  H    7.248283   7.780814   7.933666   1.876128   2.327772
                   16         17
    16  O    0.000000
    17  H    0.968487   0.000000
 Stoichiometry    C8H7O2(1+)
 Framework group  C1[X(C8H7O2)]
 Deg. of freedom    45
 Full point group                 C1      NOp   1
 Largest Abelian subgroup         C1      NOp   1
 Largest concise Abelian subgroup C1      NOp   1
                         Standard orientation:                         
 ---------------------------------------------------------------------
 Center     Atomic      Atomic             Coordinates (Angstroms)
 Number     Number       Type             X           Y           Z
 ---------------------------------------------------------------------
      1          6           0        0.630042    0.036104   -0.003974
      2          6           0       -0.084058    1.229654   -0.009986
      3          6           0       -1.463762    1.218883   -0.008624
      4          6           0       -2.149252   -0.020118   -0.042975
      5          6           0       -1.420620   -1.230704   -0.016969
      6          6           0       -0.038007   -1.183720    0.000015
      7          1           0        0.454545    2.169068   -0.019772
      8          1           0       -2.015012    2.147560    0.005259
      9          1           0       -1.937134   -2.180138   -0.004144
     10          1           0        0.528355   -2.105688    0.006861
     11          6           0       -3.564288   -0.050121    0.040010
     12          1           0       -4.067554    0.022148    1.003743
     13          1           0       -4.182832   -0.148586   -0.852300
     14          6           0        2.111142    0.104793   -0.003479
     15          8           0        2.705042    1.155963    0.000740
     16          8           0        2.728873   -1.102661   -0.024224
     17          1           0        3.621122   -0.959399    0.324108
 ---------------------------------------------------------------------
 Rotational constants (GHZ):           3.7871725           0.8288914           0.6835600
 Standard basis: def2TZVP (5D, 7F)
 There are   402 symmetry adapted cartesian basis functions of A   symmetry.
 There are   352 symmetry adapted basis functions of A   symmetry.
   352 basis functions,   566 primitive gaussians,   402 cartesian basis functions
    35 alpha electrons       35 beta electrons
       nuclear repulsion energy       475.6366189103 Hartrees.
 NAtoms=   17 NActive=   17 NUniq=   17 SFac= 1.00D+00 NAtFMM=   60 NAOKFM=F Big=F
 Integral buffers will be    131072 words long.
 Raffenetti 2 integral format.
 Two-electron integral symmetry is turned on.
 One-electron integrals computed using PRISM.
   1 Symmetry operations used in ECPInt.
 ECPInt:  NShTT=    9591 NPrTT=   29644 LenC2=    9159 LenP2D=   22064.
 LDataN:  DoStor=T MaxTD1= 6 Len=  172
 NBasis=   352 RedAO= T EigKep=  8.08D-06  NBF=   352
 NBsUse=   352 1.00D-06 EigRej= -1.00D+00 NBFU=   352
 Initial guess from the checkpoint file:  "C6H5CH2+o.chk"
 B after Tr=    -0.000000   -0.000000   -0.000000
         Rot=    0.999986    0.001871    0.000058    0.004914 Ang=   0.60 deg.
 ExpMin= 9.52D-02 ExpMax= 2.70D+04 ExpMxC= 9.22D+02 IAcc=2 IRadAn=         4 AccDes= 0.00D+00
 Harris functional with IExCor=  402 and IRadAn=       4 diagonalized for initial guess.
 HarFok:  IExCor=  402 AccDes= 0.00D+00 IRadAn=         4 IDoV= 1 UseB2=F ITyADJ=14
 ICtDFT=  3500011 ScaDFX=  1.000000  1.000000  1.000000  1.000000
 FoFCou: FMM=F IPFlag=           0 FMFlag=      100000 FMFlg1=           0
         NFxFlg=           0 DoJE=T BraDBF=F KetDBF=T FulRan=T
         wScrn=  0.000000 ICntrl=       500 IOpCl=  0 I1Cent=   200000004 NGrid=           0
         NMat0=    1 NMatS0=      1 NMatT0=    0 NMatD0=    1 NMtDS0=    0 NMtDT0=    0
 Petite list used in FoFCou.
 Requested convergence on RMS density matrix=1.00D-08 within 128 cycles.
 Requested convergence on MAX density matrix=1.00D-06.
 Requested convergence on             energy=1.00D-06.
 No special actions if energy rises.
 Integral accuracy reduced to 1.0D-05 until final iterations.
 Initial convergence to 1.0D-05 achieved.  Increase integral accuracy.
 SCF Done:  E(RB3LYP) =  -459.331119005     A.U. after   19 cycles
            NFock= 19  Conv=0.93D-08     -V/T= 2.0047
   1 Symmetry operations used in ECPInt.
 ECPInt:  NShTT=    9591 NPrTT=   29644 LenC2=    9159 LenP2D=   22064.
 LDataN:  DoStor=T MaxTD1= 7 Len=  274
 Calling FoFJK, ICntrl=      2127 FMM=F ISym2X=0 I1Cent= 0 IOpClX= 0 NMat=1 NMatS=1 NMatT=0.
 ***** Axes restored to original set *****
 -------------------------------------------------------------------
 Center     Atomic                   Forces (Hartrees/Bohr)
 Number     Number              X              Y              Z
 -------------------------------------------------------------------
      1        6          -0.009418850    0.000671216   -0.005223234
      2        6           0.002009994    0.004725877   -0.000888200
      3        6           0.000104926    0.000851124    0.013462698
      4        6           0.003646753   -0.004384341    0.004635496
      5        6          -0.001565788    0.004204070   -0.016214930
      6        6           0.001697031   -0.000334625    0.003522531
      7        1           0.000524436   -0.000220924   -0.001741181
      8        1           0.000242969    0.000278869   -0.000553635
      9        1          -0.000113557   -0.000262344   -0.000714135
     10        1          -0.000808482    0.000881708    0.001238637
     11        6          -0.001173913   -0.004205286   -0.001538697
     12        1           0.013353190    0.002589901    0.001537571
     13        1          -0.013223263    0.002082303   -0.000879536
     14        6           0.005152830   -0.016765144   -0.004894208
     15        8          -0.007238736    0.003972986    0.003628716
     16        8           0.007168043    0.011880282    0.011509470
     17        1          -0.000357583   -0.005965673   -0.006887365
 -------------------------------------------------------------------
 Cartesian Forces:  Max     0.016765144 RMS     0.006096042

 GradGradGradGradGradGradGradGradGradGradGradGradGradGradGradGradGradGrad
 Berny optimization.
 Using GEDIIS/GDIIS optimizer.
 FormGI is forming the generalized inverse of G from B-inverse, IUseBI=4.
 Internal  Forces:  Max     0.012511136 RMS     0.003797586
 Search for a local minimum.
 Step number   2 out of a maximum of   86
 All quantities printed in internal units (Hartrees-Bohrs-Radians)
 Mixed Optimization -- RFO/linear search
 Update second derivatives using D2CorX and points    1    2
 DE= -2.30D-02 DEPred=-2.04D-02 R= 1.13D+00
 TightC=F SS=  1.41D+00  RLast= 3.76D-01 DXNew= 5.0454D-01 1.1279D+00
 Trust test= 1.13D+00 RLast= 3.76D-01 DXMaxT set to 5.05D-01
 ITU=  1  0
 Use linear search instead of GDIIS.
     Eigenvalues ---    0.00237   0.00598   0.01191   0.01545   0.01736
     Eigenvalues ---    0.02066   0.02078   0.02100   0.02243   0.02273
     Eigenvalues ---    0.02375   0.02378   0.02467   0.02470   0.15845
     Eigenvalues ---    0.15998   0.15999   0.16000   0.16000   0.16000
     Eigenvalues ---    0.16400   0.21983   0.22687   0.23968   0.24542
     Eigenvalues ---    0.24843   0.24999   0.25022   0.30775   0.37220
     Eigenvalues ---    0.37230   0.37230   0.37230   0.37230   0.37698
     Eigenvalues ---    0.40369   0.42904   0.43279   0.45281   0.45407
     Eigenvalues ---    0.46274   0.50906   0.55308   0.55705   0.81060
 RFO step:  Lambda=-1.82720811D-02 EMin= 2.36727643D-03
 Quartic linear search produced a step of  0.22546.
 Iteration  1 RMS(Cart)=  0.06533199 RMS(Int)=  0.03093055
 Iteration  2 RMS(Cart)=  0.03751661 RMS(Int)=  0.00219123
 Iteration  3 RMS(Cart)=  0.00227757 RMS(Int)=  0.00017005
 Iteration  4 RMS(Cart)=  0.00000669 RMS(Int)=  0.00016994
 Iteration  5 RMS(Cart)=  0.00000000 RMS(Int)=  0.00016994
 Variable       Old X    -DE/DX   Delta X   Delta X   Delta X     New X
                                 (Linear)    (Quad)   (Total)
    R1        2.62838   0.00598  -0.00384   0.01100   0.00713   2.63551
    R2        2.62820   0.00065  -0.00389  -0.00148  -0.00544   2.62276
    R3        2.80188   0.00697  -0.02442   0.00779  -0.01663   2.78526
    R4        2.60734  -0.00026   0.01046   0.00858   0.01909   2.62643
    R5        2.04640   0.00033   0.00550   0.00534   0.01083   2.05723
    R6        2.67662  -0.00048   0.00576   0.00345   0.00929   2.68590
    R7        2.04100   0.00024   0.00428   0.00411   0.00839   2.04939
    R8        2.67054   0.00178   0.00439   0.00772   0.01212   2.68266
    R9        2.67922   0.00041   0.00698   0.00686   0.01384   2.69307
   R10        2.61447   0.00147   0.01206   0.01354   0.02555   2.64001
   R11        2.04263   0.00007   0.00465   0.00391   0.00856   2.05119
   R12        2.04478   0.00001   0.00514   0.00414   0.00928   2.05406
   R13        2.05909   0.00118   0.00836   0.01007   0.01843   2.07752
   R14        2.06016   0.00109   0.00860   0.00998   0.01858   2.07874
   R15        2.28156  -0.00764  -0.02175  -0.03061  -0.05236   2.22920
   R16        2.56333  -0.00950  -0.03133  -0.05048  -0.08181   2.48152
   R17        1.83017   0.00318   0.00362   0.00937   0.01299   1.84316
    A1        2.10139  -0.00193   0.00201  -0.00587  -0.00422   2.09716
    A2        2.06362  -0.00172  -0.00715  -0.01244  -0.01941   2.04420
    A3        2.11818   0.00365   0.00515   0.01831   0.02364   2.14182
    A4        2.10215   0.00199   0.00163   0.01058   0.01198   2.11412
    A5        2.08186  -0.00115  -0.00277  -0.00722  -0.00988   2.07198
    A6        2.09917  -0.00084   0.00113  -0.00334  -0.00209   2.09708
    A7        2.08375  -0.00242  -0.00355  -0.01445  -0.01827   2.06548
    A8        2.09865   0.00138   0.00153   0.00798   0.00937   2.10801
    A9        2.10070   0.00103   0.00200   0.00607   0.00790   2.10860
   A10        2.09366   0.00287   0.00228   0.01304   0.01510   2.10876
   A11        2.09453  -0.00059  -0.00028  -0.00173  -0.00207   2.09246
   A12        2.08908  -0.00218  -0.00151  -0.00920  -0.01074   2.07834
   A13        2.07875  -0.00109  -0.00468  -0.00851  -0.01364   2.06511
   A14        2.10166   0.00091   0.00221   0.00636   0.00852   2.11018
   A15        2.10275   0.00018   0.00246   0.00195   0.00436   2.10711
   A16        2.10572   0.00058   0.00244   0.00485   0.00684   2.11256
   A17        2.08969   0.00081  -0.00100   0.00450   0.00365   2.09333
   A18        2.08773  -0.00140  -0.00145  -0.00950  -0.01081   2.07692
   A19        2.10754   0.00132   0.00301   0.00978   0.01271   2.12025
   A20        2.11797   0.00151   0.00536   0.01216   0.01745   2.13542
   A21        2.05767  -0.00283  -0.00824  -0.02188  -0.03019   2.02747
   A22        2.13142   0.00261   0.00835   0.01673   0.02484   2.15625
   A23        1.99728  -0.00620  -0.02190  -0.04065  -0.06278   1.93450
   A24        2.15441   0.00360   0.01353   0.02442   0.03771   2.19213
   A25        1.85707   0.00655  -0.01208   0.03487   0.02279   1.87986
    D1        0.00290   0.00108   0.00330   0.02353   0.02709   0.02999
    D2       -3.13445   0.00084   0.00436   0.01669   0.02111  -3.11333
    D3       -3.13985   0.00116   0.00275   0.02726   0.03025  -3.10960
    D4        0.00599   0.00093   0.00381   0.02042   0.02428   0.03027
    D5        0.01264   0.00100   0.00020   0.02607   0.02660   0.03924
    D6       -3.13927   0.00024  -0.00223   0.00960   0.00745  -3.13182
    D7       -3.12776   0.00092   0.00076   0.02224   0.02328  -3.10448
    D8        0.00351   0.00016  -0.00167   0.00577   0.00413   0.00764
    D9        0.00864   0.00092   0.00210   0.03944   0.04146   0.05010
   D10       -3.11992   0.00020   0.00503  -0.00209   0.00298  -3.11693
   D11       -3.13411   0.00100   0.00154   0.04319   0.04469  -3.08943
   D12        0.02051   0.00029   0.00448   0.00166   0.00621   0.02673
   D13       -0.03399  -0.00162  -0.00246  -0.03930  -0.04183  -0.07582
   D14        3.12169  -0.00026   0.00060  -0.00655  -0.00618   3.11551
   D15        3.10331  -0.00139  -0.00353  -0.03240  -0.03579   3.06753
   D16       -0.02419  -0.00003  -0.00046   0.00036  -0.00014  -0.02433
   D17        0.05003   0.00027  -0.00167   0.00756   0.00544   0.05548
   D18        3.07468   0.00108   0.00263   0.02775   0.03015   3.10483
   D19       -3.10567  -0.00109  -0.00473  -0.02522  -0.03020  -3.13587
   D20       -0.08102  -0.00028  -0.00044  -0.00503  -0.00549  -0.08652
   D21       -0.03481   0.00169   0.00510   0.04025   0.04509   0.01028
   D22        3.10002   0.00035   0.00346   0.00610   0.00948   3.10950
   D23       -3.05982   0.00077   0.00072   0.01962   0.02002  -3.03980
   D24        0.07501  -0.00056  -0.00092  -0.01453  -0.01560   0.05942
   D25       -1.42017   0.01136   0.01015   0.31265   0.32290  -1.09727
   D26        1.72453   0.01104   0.01922   0.29027   0.30960   2.03414
   D27        1.60478   0.01251   0.01473   0.33428   0.34891   1.95369
   D28       -1.53370   0.01219   0.02380   0.31191   0.33561  -1.19809
   D29        0.00362  -0.00241  -0.00439  -0.05738  -0.06167  -0.05805
   D30       -3.12766  -0.00166  -0.00196  -0.04101  -0.04278   3.11274
   D31       -3.13121  -0.00107  -0.00275  -0.02322  -0.02614   3.12584
   D32        0.02070  -0.00032  -0.00032  -0.00685  -0.00725   0.01345
   D33       -2.75968  -0.00645  -0.03194  -0.15951  -0.19135  -2.95103
   D34        0.39513  -0.00717  -0.02896  -0.20158  -0.23065   0.16448
         Item               Value     Threshold  Converged?
 Maximum Force            0.012511     0.000015     NO 
 RMS     Force            0.003798     0.000010     NO 
 Maximum Displacement     0.529170     0.000060     NO 
 RMS     Displacement     0.097251     0.000040     NO 
 Predicted change in Energy=-1.696186D-02
 GradGradGradGradGradGradGradGradGradGradGradGradGradGradGradGradGradGrad

                          Input orientation:                          
 ---------------------------------------------------------------------
 Center     Atomic      Atomic             Coordinates (Angstroms)
 Number     Number       Type             X           Y           Z
 ---------------------------------------------------------------------
      1          6           0       -0.013885   -1.846963   -0.041994
      2          6           0        1.164968   -1.143015    0.202575
      3          6           0        1.169904    0.244530    0.282409
      4          6           0       -0.040561    0.940074    0.015698
      5          6           0       -1.240683    0.232923   -0.258010
      6          6           0       -1.204505   -1.163594   -0.246213
      7          1           0        2.090254   -1.701568    0.332970
      8          1           0        2.085468    0.784850    0.496691
      9          1           0       -2.172133    0.762154   -0.432658
     10          1           0       -2.122876   -1.716061   -0.427497
     11          6           0       -0.084280    2.359759    0.131964
     12          1           0        0.092226    2.862766    1.093451
     13          1           0       -0.285474    3.014897   -0.728479
     14          6           0        0.074853   -3.317960   -0.067670
     15          8           0        1.067762   -3.915064    0.154038
     16          8           0       -1.094408   -3.851863   -0.336314
     17          1           0       -1.027700   -4.810795   -0.171019
 ---------------------------------------------------------------------
                    Distance matrix (angstroms):
                    1          2          3          4          5
     1  C    0.000000
     2  C    1.394650   0.000000
     3  C    2.425064   1.389849   0.000000
     4  C    2.787762   2.414019   1.421318   0.000000
     5  C    2.424381   2.809360   2.470449   1.419603   0.000000
     6  C    1.387903   2.411688   2.810707   2.418426   1.397035
     7  H    2.142227   1.088640   2.153345   3.408711   3.897006
     8  H    3.409385   2.156500   1.084491   2.185280   3.455066
     9  H    3.408540   3.894796   3.456656   2.185470   1.085443
    10  H    2.147927   3.396364   3.897471   3.404043   2.146049
    11  C    4.210906   3.719548   2.463698   1.425109   2.452097
    12  H    4.845827   4.241547   2.945224   2.208151   3.243327
    13  H    4.917592   4.500987   3.288611   2.217808   2.978783
    14  C    1.473895   2.447808   3.743397   4.260414   3.791521
    15  O    2.342100   2.774177   4.162828   4.981956   4.764924
    16  O    2.296471   3.568338   4.721267   4.919062   4.088154
    17  H    3.135087   4.289519   5.530947   5.837963   5.048963
                    6          7          8          9         10
     6  C    0.000000
     7  H    3.388260   0.000000
     8  H    3.895159   2.491808   0.000000
     9  H    2.163231   4.982374   4.357909   0.000000
    10  H    1.086963   4.281236   4.981851   2.478709   0.000000
    11  C    3.716442   4.611223   2.705766   2.688917   4.591424
    12  H    4.437092   5.040198   2.940556   3.445127   5.309013
    13  H    4.305460   5.386632   3.477861   2.953277   5.084152
    14  C    2.511957   2.614397   4.603708   4.672204   2.743277
    15  O    3.590820   2.444805   4.821030   5.719922   3.918415
    16  O    2.692031   3.900484   5.683715   4.739190   2.372280
    17  H    3.652259   4.432035   6.438082   5.695256   3.292806
                   11         12         13         14         15
    11  C    0.000000
    12  H    1.099376   0.000000
    13  H    1.100022   1.866878   0.000000
    14  C    5.683456   6.288869   6.377428   0.000000
    15  O    6.379741   6.911813   7.115789   1.179642   0.000000
    16  O    6.310617   6.966963   6.925356   1.313162   2.217977
    17  H    7.238694   7.857268   7.880554   1.858727   2.301947
                   16         17
    16  O    0.000000
    17  H    0.975358   0.000000
 Stoichiometry    C8H7O2(1+)
 Framework group  C1[X(C8H7O2)]
 Deg. of freedom    45
 Full point group                 C1      NOp   1
 Largest Abelian subgroup         C1      NOp   1
 Largest concise Abelian subgroup C1      NOp   1
                         Standard orientation:                         
 ---------------------------------------------------------------------
 Center     Atomic      Atomic             Coordinates (Angstroms)
 Number     Number       Type             X           Y           Z
 ---------------------------------------------------------------------
      1          6           0        0.648808    0.020455   -0.009384
      2          6           0       -0.061183    1.220404   -0.042294
      3          6           0       -1.450552    1.234382   -0.008562
      4          6           0       -2.138688   -0.008983   -0.034153
      5          6           0       -1.424597   -1.235875   -0.025098
      6          6           0       -0.029111   -1.190206    0.022238
      7          1           0        0.494016    2.155419   -0.093669
      8          1           0       -1.996339    2.171524   -0.010151
      9          1           0       -1.949097   -2.186127   -0.014729
     10          1           0        0.527770   -2.123031    0.057032
     11          6           0       -3.561388   -0.035014    0.044477
     12          1           0       -4.094339    0.338405    0.930563
     13          1           0       -4.189224   -0.417630   -0.773738
     14          6           0        2.119981    0.109966   -0.007473
     15          8           0        2.710903    1.130632    0.017211
     16          8           0        2.660785   -1.086663   -0.005408
     17          1           0        3.614088   -0.981080    0.171767
 ---------------------------------------------------------------------
 Rotational constants (GHZ):           3.8110784           0.8369442           0.6892314
 Standard basis: def2TZVP (5D, 7F)
 There are   402 symmetry adapted cartesian basis functions of A   symmetry.
 There are   352 symmetry adapted basis functions of A   symmetry.
   352 basis functions,   566 primitive gaussians,   402 cartesian basis functions
    35 alpha electrons       35 beta electrons
       nuclear repulsion energy       477.4878739197 Hartrees.
 NAtoms=   17 NActive=   17 NUniq=   17 SFac= 1.00D+00 NAtFMM=   60 NAOKFM=F Big=F
 Integral buffers will be    131072 words long.
 Raffenetti 2 integral format.
 Two-electron integral symmetry is turned on.
 One-electron integrals computed using PRISM.
   1 Symmetry operations used in ECPInt.
 ECPInt:  NShTT=    9591 NPrTT=   29644 LenC2=    9157 LenP2D=   22087.
 LDataN:  DoStor=T MaxTD1= 6 Len=  172
 NBasis=   352 RedAO= T EigKep=  9.12D-06  NBF=   352
 NBsUse=   352 1.00D-06 EigRej= -1.00D+00 NBFU=   352
 Initial guess from the checkpoint file:  "C6H5CH2+o.chk"
 B after Tr=     0.000000   -0.000000   -0.000000
         Rot=    0.999974    0.006731    0.000067    0.002577 Ang=   0.83 deg.
 ExpMin= 9.52D-02 ExpMax= 2.70D+04 ExpMxC= 9.22D+02 IAcc=2 IRadAn=         4 AccDes= 0.00D+00
 Harris functional with IExCor=  402 and IRadAn=       4 diagonalized for initial guess.
 HarFok:  IExCor=  402 AccDes= 0.00D+00 IRadAn=         4 IDoV= 1 UseB2=F ITyADJ=14
 ICtDFT=  3500011 ScaDFX=  1.000000  1.000000  1.000000  1.000000
 FoFCou: FMM=F IPFlag=           0 FMFlag=      100000 FMFlg1=           0
         NFxFlg=           0 DoJE=T BraDBF=F KetDBF=T FulRan=T
         wScrn=  0.000000 ICntrl=       500 IOpCl=  0 I1Cent=   200000004 NGrid=           0
         NMat0=    1 NMatS0=      1 NMatT0=    0 NMatD0=    1 NMtDS0=    0 NMtDT0=    0
 Petite list used in FoFCou.
 Requested convergence on RMS density matrix=1.00D-08 within 128 cycles.
 Requested convergence on MAX density matrix=1.00D-06.
 Requested convergence on             energy=1.00D-06.
 No special actions if energy rises.
 Integral accuracy reduced to 1.0D-05 until final iterations.
 Initial convergence to 1.0D-05 achieved.  Increase integral accuracy.
 SCF Done:  E(RB3LYP) =  -459.352193886     A.U. after   15 cycles
            NFock= 15  Conv=0.62D-08     -V/T= 2.0046
   1 Symmetry operations used in ECPInt.
 ECPInt:  NShTT=    9591 NPrTT=   29644 LenC2=    9157 LenP2D=   22087.
 LDataN:  DoStor=T MaxTD1= 7 Len=  274
 Calling FoFJK, ICntrl=      2127 FMM=F ISym2X=0 I1Cent= 0 IOpClX= 0 NMat=1 NMatS=1 NMatT=0.
 ***** Axes restored to original set *****
 -------------------------------------------------------------------
 Center     Atomic                   Forces (Hartrees/Bohr)
 Number     Number              X              Y              Z
 -------------------------------------------------------------------
      1        6           0.005796446    0.017570958   -0.001912308
      2        6           0.013938900    0.015991584    0.000624333
      3        6          -0.003484345   -0.015670307    0.013654040
      4        6           0.000598260    0.019240302    0.007012368
      5        6           0.003567118   -0.013530523   -0.017425097
      6        6          -0.015558759    0.015042586   -0.000937663
      7        1          -0.003613069    0.002037798   -0.000635233
      8        1          -0.002445504   -0.001058456   -0.000432482
      9        1           0.002875466   -0.001493244   -0.000402847
     10        1           0.003120003    0.002237295    0.002146111
     11        6           0.000781456   -0.007472853   -0.001974474
     12        1           0.016642926   -0.003033017   -0.009135353
     13        1          -0.017171970   -0.006012581    0.008437969
     14        6          -0.016430685    0.014155774   -0.002721065
     15        8           0.034721950   -0.019331661    0.008635642
     16        8          -0.021024544   -0.019696235    0.000498536
     17        1          -0.002313647    0.001022582   -0.005432479
 -------------------------------------------------------------------
 Cartesian Forces:  Max     0.034721950 RMS     0.011301434

 GradGradGradGradGradGradGradGradGradGradGradGradGradGradGradGradGradGrad
 Berny optimization.
 Using GEDIIS/GDIIS optimizer.
 FormGI is forming the generalized inverse of G from B-inverse, IUseBI=4.
 Internal  Forces:  Max     0.040633884 RMS     0.008420173
 Search for a local minimum.
 Step number   3 out of a maximum of   86
 All quantities printed in internal units (Hartrees-Bohrs-Radians)
 Mixed Optimization -- RFO/linear search
 Update second derivatives using D2CorX and points    2    3
 DE= -2.11D-02 DEPred=-1.70D-02 R= 1.24D+00
 TightC=F SS=  1.41D+00  RLast= 7.54D-01 DXNew= 8.4853D-01 2.2629D+00
 Trust test= 1.24D+00 RLast= 7.54D-01 DXMaxT set to 8.49D-01
 ITU=  1  1  0
 Use linear search instead of GDIIS.
     Eigenvalues ---    0.00215   0.00249   0.00706   0.01500   0.01543
     Eigenvalues ---    0.02064   0.02085   0.02103   0.02242   0.02297
     Eigenvalues ---    0.02380   0.02394   0.02467   0.02513   0.15959
     Eigenvalues ---    0.15982   0.15987   0.15995   0.16000   0.16063
     Eigenvalues ---    0.16245   0.22001   0.23273   0.23964   0.24803
     Eigenvalues ---    0.24923   0.25014   0.25702   0.30152   0.37229
     Eigenvalues ---    0.37230   0.37230   0.37230   0.37242   0.37686
     Eigenvalues ---    0.41733   0.43291   0.44152   0.45233   0.45531
     Eigenvalues ---    0.50425   0.51037   0.55356   0.62636   1.69897
 RFO step:  Lambda=-1.34399509D-02 EMin= 2.15147538D-03
 Quartic linear search produced a step of  0.62783.
 Iteration  1 RMS(Cart)=  0.06900764 RMS(Int)=  0.06125633
 Iteration  2 RMS(Cart)=  0.05663321 RMS(Int)=  0.01602163
 Iteration  3 RMS(Cart)=  0.01910338 RMS(Int)=  0.00073393
 Iteration  4 RMS(Cart)=  0.00062987 RMS(Int)=  0.00042132
 Iteration  5 RMS(Cart)=  0.00000068 RMS(Int)=  0.00042132
 Variable       Old X    -DE/DX   Delta X   Delta X   Delta X     New X
                                 (Linear)    (Quad)   (Total)
    R1        2.63551   0.00869   0.00448   0.01560   0.02008   2.65559
    R2        2.62276   0.00864  -0.00341   0.00922   0.00570   2.62845
    R3        2.78526   0.02348  -0.01044   0.03474   0.02431   2.80956
    R4        2.62643  -0.01422   0.01199  -0.00336   0.00874   2.63517
    R5        2.05723  -0.00419   0.00680   0.00051   0.00731   2.06455
    R6        2.68590   0.00054   0.00583   0.00818   0.01412   2.70002
    R7        2.04939  -0.00268   0.00527   0.00150   0.00677   2.05616
    R8        2.68266   0.00113   0.00761   0.00968   0.01729   2.69995
    R9        2.69307  -0.01668   0.00869  -0.01540  -0.00671   2.68636
   R10        2.64001  -0.01482   0.01604  -0.00006   0.01587   2.65589
   R11        2.05119  -0.00313   0.00537   0.00094   0.00631   2.05750
   R12        2.05406  -0.00413   0.00583  -0.00034   0.00549   2.05955
   R13        2.07752  -0.00671   0.01157   0.00109   0.01266   2.09018
   R14        2.07874  -0.00704   0.01167   0.00066   0.01233   2.09107
   R15        2.22920   0.04063  -0.03287  -0.00243  -0.03530   2.19390
   R16        2.48152   0.02938  -0.05136  -0.00731  -0.05867   2.42285
   R17        1.84316  -0.00208   0.00815   0.00592   0.01407   1.85723
    A1        2.09716   0.00001  -0.00265   0.00167  -0.00154   2.09563
    A2        2.04420   0.00066  -0.01219  -0.01255  -0.02447   2.01973
    A3        2.14182  -0.00067   0.01484   0.01087   0.02599   2.16781
    A4        2.11412  -0.00195   0.00752   0.00129   0.00842   2.12254
    A5        2.07198   0.00083  -0.00620  -0.00421  -0.01029   2.06169
    A6        2.09708   0.00112  -0.00131   0.00290   0.00170   2.09879
    A7        2.06548   0.00166  -0.01147  -0.00612  -0.01802   2.04746
    A8        2.10801  -0.00052   0.00588   0.00441   0.01012   2.11813
    A9        2.10860  -0.00117   0.00496   0.00136   0.00614   2.11475
   A10        2.10876   0.00033   0.00948   0.00691   0.01578   2.12455
   A11        2.09246   0.00059  -0.00130   0.00181   0.00035   2.09281
   A12        2.07834  -0.00083  -0.00674  -0.00672  -0.01361   2.06473
   A13        2.06511   0.00271  -0.00857  -0.00190  -0.01123   2.05388
   A14        2.11018  -0.00141   0.00535   0.00128   0.00661   2.11679
   A15        2.10711  -0.00133   0.00274   0.00028   0.00301   2.11012
   A16        2.11256  -0.00289   0.00429  -0.00355  -0.00002   2.11254
   A17        2.09333   0.00161   0.00229   0.00528   0.00783   2.10117
   A18        2.07692   0.00127  -0.00679  -0.00193  -0.00848   2.06844
   A19        2.12025  -0.00043   0.00798   0.00530   0.01318   2.13343
   A20        2.13542  -0.00102   0.01095   0.00636   0.01722   2.15264
   A21        2.02747   0.00146  -0.01896  -0.01139  -0.03044   1.99703
   A22        2.15625  -0.00619   0.01559   0.00009   0.01408   2.17033
   A23        1.93450   0.00927  -0.03942  -0.01528  -0.05634   1.87816
   A24        2.19213  -0.00303   0.02368   0.01812   0.04012   2.23224
   A25        1.87986   0.00656   0.01431   0.02735   0.04166   1.92151
    D1        0.02999   0.00084   0.01701   0.01435   0.03170   0.06169
    D2       -3.11333   0.00002   0.01326   0.00058   0.01404  -3.09929
    D3       -3.10960   0.00105   0.01899   0.01682   0.03610  -3.07350
    D4        0.03027   0.00023   0.01524   0.00305   0.01844   0.04871
    D5        0.03924   0.00081   0.01670   0.00897   0.02618   0.06543
    D6       -3.13182   0.00042   0.00468   0.00117   0.00607  -3.12575
    D7       -3.10448   0.00059   0.01462   0.00634   0.02133  -3.08314
    D8        0.00764   0.00019   0.00260  -0.00146   0.00122   0.00886
    D9        0.05010  -0.00087   0.02603  -0.07733  -0.05100  -0.00090
   D10       -3.11693   0.00099   0.00187   0.04307   0.04458  -3.07235
   D11       -3.08943  -0.00066   0.02806  -0.07479  -0.04636  -3.13579
   D12        0.02673   0.00121   0.00390   0.04562   0.04922   0.07594
   D13       -0.07582  -0.00119  -0.02626  -0.01678  -0.04307  -0.11889
   D14        3.11551  -0.00042  -0.00388  -0.00862  -0.01268   3.10283
   D15        3.06753  -0.00036  -0.02247  -0.00281  -0.02503   3.04250
   D16       -0.02433   0.00041  -0.00009   0.00535   0.00536  -0.01898
   D17        0.05548   0.00027   0.00342  -0.00264   0.00026   0.05574
   D18        3.10483   0.00147   0.01893   0.02233   0.04123  -3.13713
   D19       -3.13587  -0.00048  -0.01896  -0.01071  -0.02995   3.11737
   D20       -0.08652   0.00072  -0.00345   0.01426   0.01102  -0.07549
   D21        0.01028   0.00165   0.02831   0.02464   0.05279   0.06307
   D22        3.10950   0.00073   0.00595   0.01544   0.02142   3.13092
   D23       -3.03980   0.00039   0.01257  -0.00057   0.01176  -3.02804
   D24        0.05942  -0.00054  -0.00979  -0.00977  -0.01961   0.03981
   D25       -1.09727   0.01533   0.20273   0.22752   0.43048  -0.66679
   D26        2.03414   0.01583   0.19438   0.26051   0.45512   2.48926
   D27        1.95369   0.01657   0.21905   0.25277   0.47159   2.42528
   D28       -1.19809   0.01707   0.21070   0.28576   0.49623  -0.70187
   D29       -0.05805  -0.00187  -0.03872  -0.02765  -0.06607  -0.12412
   D30        3.11274  -0.00148  -0.02686  -0.02004  -0.04659   3.06615
   D31        3.12584  -0.00094  -0.01641  -0.01849  -0.03492   3.09092
   D32        0.01345  -0.00056  -0.00455  -0.01089  -0.01544  -0.00199
   D33       -2.95103  -0.00475  -0.12013  -0.09947  -0.22014   3.11202
   D34        0.16448  -0.00289  -0.14481   0.02361  -0.12067   0.04382
         Item               Value     Threshold  Converged?
 Maximum Force            0.040634     0.000015     NO 
 RMS     Force            0.008420     0.000010     NO 
 Maximum Displacement     0.684869     0.000060     NO 
 RMS     Displacement     0.133864     0.000040     NO 
 Predicted change in Energy=-2.598508D-02
[...]
   xx         0.973369D+02      0.144238D+02      0.160487D+02
   yx        -0.228669D+01     -0.338852D+00     -0.377024D+00
   yy         0.470823D+02      0.697687D+01      0.776282D+01
   zx         0.121582D+02      0.180166D+01      0.200462D+01
   zy        -0.553256D+00     -0.819841D-01     -0.912196D-01
   zz         0.156676D+03      0.232170D+02      0.258325D+02

 ----------------------------------------------------------------------
 1\1\GINC-N12\Freq\RB3LYP\def2TZVP\C8H7O2(1+)\UNKNOWN\22-Jan-2025\0\\#N
  Geom=AllCheck Guess=TCheck SCRF=Check GenChk RB3LYP/def2TZVP Freq\\op
 t\\1,1\C,-0.018339411,-1.8112914765,-0.013311426\C,1.1610106856,-1.121
 7564343,0.32370596\C,1.1552238297,0.246063531,0.3631871848\C,-0.050171
 6691,0.9673282093,0.0615239251\C,-1.238276811,0.2355146602,-0.27909270
 57\C,-1.2151045826,-1.133623301,-0.3139633469\H,2.0503155533,-1.695739
 392,0.5450199979\H,2.0503658915,0.7983203951,0.6198402881\H,-2.1458295
 408,0.7804881017,-0.5061498166\H,-2.0992687791,-1.6996977641,-0.568095
 5967\C,-0.0673556125,2.3323992173,0.0978655246\H,0.8189881983,2.902211
 9796,0.3526923814\H,-0.9675950948,2.8929876615,-0.1267777517\C,0.06122
 19037,-3.3212805403,-0.0372615165\O,1.0745679946,-3.9097641469,0.21694
 97243\O,-1.1055003023,-3.8797940846,-0.3670209239\H,-1.0053238835,-4.8
 472941559,-0.3691699122\\Version=ES64L-G16RevA.03\State=1-A\HF=-459.40
 39922\RMSD=7.349e-09\RMSF=9.087e-07\ZeroPoint=0.1315656\Thermal=0.1400
 226\Dipole=-0.5857772,2.6601233,-0.0773459\DipoleDeriv=0.5704321,-0.05
 35906,0.1109504,-0.0599722,0.3968182,-0.0087045,0.1107599,-0.0069762,0
 .1802478,-0.1918027,-0.392453,-0.0482848,-0.5504611,-0.6910917,-0.1667
 05,-0.0530232,-0.1243315,-0.0736243,0.0424232,-0.3187613,-0.0029007,0.
 3545736,0.7478457,0.1170105,0.0172973,-0.0635904,0.0203149,-0.0543978,
 0.0020098,-0.0215566,0.0216799,-1.3514575,-0.0355164,-0.020964,-0.0407
 907,0.0193561,0.0342321,0.30589,0.0131773,-0.3838863,0.7448803,-0.0811
 93,-0.0075199,0.1038136,0.0204051,-0.2286882,0.4283416,-0.0312591,0.59
 55862,-0.6791224,0.141297,-0.026236,0.0964216,-0.0683693,0.1182151,-0.
 0102434,-0.0057564,0.0101201,0.1408174,0.0027825,-0.0051463,-0.0026798
 ,0.1370738,0.0903646,0.0030022,-0.0111966,-0.0215699,0.0502347,-0.0082
 516,-0.011935,-0.0016587,0.129194,0.0880852,0.0009807,-0.0118027,0.023
 4572,0.0494349,0.0038082,-0.0111286,-0.0022189,0.1291493,0.1046985,-0.
 0049302,-0.0095448,-0.0039641,0.1267547,-0.0014527,-0.0095158,-0.00171
 2,0.1371322,0.2503907,-0.0049273,0.0453699,-0.0121304,0.9388028,0.0224
 903,0.0451543,0.0244232,0.0935263,0.0583031,0.0243648,-0.016267,0.0358
 136,0.1580755,0.0106978,-0.0159238,0.0076276,0.1176366,0.0596008,-0.02
 52824,-0.0174069,-0.0377167,0.1567107,-0.0090653,-0.0177801,-0.0057314
 ,0.1167319,1.4516447,0.4617007,0.321529,0.1429829,1.5548691,0.07586,0.
 3119579,0.1613866,0.3933523,-0.7822573,-0.0975569,-0.1317994,0.2452226
 ,-0.8765709,0.0485487,-0.1215149,-0.0434274,-0.335803,-0.9082937,-0.44
 83696,-0.1723241,-0.4618691,-0.8905475,-0.1411449,-0.172724,-0.1375249
 ,-0.3665784,0.2970494,0.129825,-0.0109274,0.1021338,0.4235458,0.029538
 3,-0.0117576,0.0369692,0.3502547\Polar=91.8666979,-2.183599,158.955329
 8,11.9747372,2.773719,50.2736028\Quadrupole=-5.7295282,18.4706959,-12.
 7411677,4.4665804,2.1892708,2.1542757\PG=C01 [X(C8H7O2)]\NImag=0\\0.64
 221921,-0.00091584,0.58638344,0.12853342,0.01246018,0.19776334,-0.2508
 8269,-0.08917856,-0.05165064,0.65533890,-0.03439263,-0.16115511,-0.012
 01127,-0.06432394,0.73284747,-0.05000701,-0.02670612,-0.08250767,0.137
 73974,0.00069359,0.17158122,0.01691438,-0.03432986,0.00216697,-0.12327
 231,-0.00905781,-0.01574558,0.63682486,-0.05822960,-0.02636343,-0.0165
 5868,0.03243383,-0.39035659,-0.00104332,0.05367611,0.72758682,0.001449
 58,-0.01014883,0.00507986,-0.01450041,-0.01217220,-0.06983544,0.132346
 62,0.03174184,0.18583681,-0.01261113,-0.00005798,-0.00046413,0.0118460
 6,0.02535258,0.00046726,-0.23030770,0.05148963,-0.04081592,0.57636807,
 -0.00126837,-0.00431166,-0.00014297,0.02323333,-0.03239503,0.00487143,
 0.06284172,-0.12883777,0.01516054,-0.00518416,0.75895208,-0.00050039,0
 .00018168,-0.01101640,0.00040379,0.00544022,0.01321147,-0.04047524,0.0
 1211565,-0.08286336,0.11576960,0.01705330,0.17571494,0.01503979,0.0358
 2963,0.00350421,-0.00800369,-0.01915647,-0.00157324,-0.04557445,0.0054
 0473,-0.01444900,-0.22811360,-0.06339169,-0.04360272,0.64027409,0.0618
 4822,-0.02571330,0.01563755,-0.01585434,-0.03570710,-0.00519540,-0.006
 12661,0.04006149,-0.00070842,-0.05189625,-0.12962319,-0.01562863,-0.06
 130436,0.72275380,0.00428429,0.00865875,0.00739258,-0.00147422,-0.0060
 8095,-0.00485848,-0.01479519,0.00238457,0.00500534,-0.04325757,-0.0187
 1179,-0.08479838,0.12973396,0.00075363,0.18452485,-0.25347826,0.088668
 08,-0.04764445,-0.04281862,-0.01154759,-0.01390373,-0.00848704,0.01597
 540,-0.00066429,0.01288234,-0.02134025,-0.00063900,-0.12275315,-0.0274
 7514,-0.01596246,0.65790429,0.03263351,-0.16224243,0.00586222,0.010186
 63,0.06215661,0.00436525,0.01957042,-0.03554085,0.00430960,-0.02429195
 ,-0.03336350,-0.00790303,0.01576776,-0.38557086,-0.00535163,0.05824245
 ,0.72033964,-0.04932544,0.02089144,-0.07852494,-0.01325190,-0.00146417
 ,0.00412927,-0.00055608,0.00334517,-0.00427258,-0.00072775,-0.00711107
 ,0.01246932,-0.01466521,-0.01695008,-0.07075322,0.14265215,0.03325995,
 0.17181779,-0.01903239,0.01302123,-0.00587423,-0.25439127,0.12410647,-
 0.05292011,0.00747197,-0.00263339,0.00061897,0.00145642,-0.00165584,-0
 .00217006,0.00022658,-0.00055642,0.00020707,-0.00167650,-0.00343297,-0
 .00199472,0.26559197,-0.01332037,0.01432788,-0.00327269,0.12498293,-0.
 13679437,0.03071576,0.02565965,-0.01184942,0.00638084,-0.00166326,-0.0
 0394080,-0.00084511,-0.00048915,-0.00048844,-0.00012763,-0.00309667,-0
 .00244935,-0.00106537,-0.13230471,0.14165408,-0.00666467,0.00379248,0.
 00265106,-0.05289383,0.03048104,-0.05648487,0.00146786,-0.00120805,0.0
 0522709,-0.00217006,-0.00084317,0.00875403,0.00020912,-0.00014569,-0.0
 0055592,-0.00198453,-0.00115563,0.00480917,0.05949291,-0.03210720,0.04
 398527,0.00043088,0.00118979,-0.00209325,0.00716132,0.00301953,-0.0004
 4106,-0.25323953,-0.11989890,-0.06053072,-0.01648550,-0.01360222,-0.00
 549726,-0.00166628,0.00432569,-0.00125857,0.00061616,-0.00069985,0.000
 37433,0.00028599,-0.00013833,0.00135524,0.26222710,0.00128717,-0.00579
 703,-0.00007964,-0.02685179,-0.01064445,-0.00779563,-0.11927038,-0.133
 13647,-0.03475448,0.01469182,0.01049403,0.00418067,0.00336771,-0.00209
 401,0.00073513,0.00024389,-0.00027820,0.00008281,0.00006559,0.00115258
 ,0.00019561,0.12672378,0.13828735,-0.00209018,-0.00010568,0.00780469,-
 0.00133744,0.00021585,0.00879145,-0.06051178,-0.03492284,-0.05824417,-
 0.00464842,-0.00340807,0.00114002,-0.00128742,0.00099201,0.00319458,0.
 00040262,-0.00017023,-0.00075489,0.00136147,0.00014091,-0.00441303,0.0
 6740716,0.03738474,0.04428001,0.00047894,-0.00094963,-0.00213959,0.000
 60339,0.00066852,0.00045697,-0.00154410,-0.00424946,-0.00145604,-0.016
 45080,0.01335426,-0.00468455,-0.25858539,0.12014948,-0.05478143,0.0065
 3590,-0.00271855,-0.00085598,-0.00004068,0.00008503,0.00022925,-0.0005
 4153,0.00070716,-0.00061744,0.26794862,-0.00100467,-0.00589026,-0.0006
 9683,-0.00026486,-0.00028004,-0.00004866,-0.00326764,-0.00217827,-0.00
 104407,-0.01502078,0.01050634,-0.00378872,0.11956620,-0.13123935,0.029
 35720,0.02724462,-0.01033119,0.00671440,0.00008088,0.00001091,0.000048
 61,-0.00069661,0.00065750,-0.00022233,-0.12720592,0.13617232,-0.002141
 24,-0.00068207,0.00775537,0.00042894,0.00020170,-0.00090452,-0.0014266
 4,-0.00130731,0.00298758,-0.00553597,0.00382150,0.00113922,-0.05479880
 ,0.02951367,-0.05470286,0.00004302,-0.00132192,0.00939521,0.00022914,0
 .00004971,-0.00082297,-0.00065955,0.00015420,0.00166739,0.06133282,-0.
 03078246,0.04056432,-0.01824543,-0.01344993,-0.00624673,-0.00180737,0.
 00359998,-0.00184280,0.00019844,0.00058008,0.00021897,0.00144241,0.001
 72751,-0.00207836,0.00744676,0.00280481,0.00076072,-0.25334425,-0.1231
 6976,-0.06027916,-0.00061704,-0.00081661,-0.00025351,-0.00003890,-0.00
 009524,0.00024290,0.00031376,-0.00014005,0.00135859,0.26367003,0.01403
 909,0.01298924,0.00404904,0.00347639,-0.00196265,0.00070950,0.00052009
 ,-0.00060321,0.00013800,0.00195432,-0.00401260,0.00012212,-0.02627367,
 -0.01253554,-0.00757086,-0.12444465,-0.13651400,-0.03620257,0.00072523
 ,0.00075280,0.00021000,-0.00009968,0.00003625,0.00000302,0.00006065,0.
 00109107,0.00019209,0.13094276,0.14370281,-0.00542178,-0.00332364,0.00
 198587,-0.00184647,0.00074268,0.00499302,0.00021721,0.00015403,-0.0004
 9017,-0.00207144,0.00006131,0.00883071,-0.00011184,0.00022849,0.004901
 12,-0.06031752,-0.03586084,-0.05963534,-0.00020724,-0.00020352,0.00017
 510,0.00024276,0.00000420,-0.00088995,0.00136456,0.00013824,-0.0043970
 7,0.06712098,0.03859066,0.04722900,-0.01196766,-0.00016780,-0.00312292
 ,-0.00165965,0.01175530,-0.00122879,0.00323976,0.02941385,0.00109559,-
 0.10969207,0.00430693,-0.01308888,0.00422518,-0.02851683,-0.00033879,-
 0.00126797,-0.01184550,-0.00185275,0.00045845,0.00128499,0.00013843,0.
 00067161,0.00089917,0.00088758,0.00065631,-0.00099354,0.00083338,0.000
 44225,-0.00135332,0.00004763,0.62963137,0.00032059,0.00427002,0.000224
 46,0.00549770,0.00260022,0.00142546,0.01368112,-0.03452316,0.00256053,
 0.00421196,-0.42660137,-0.00985557,-0.01273378,-0.03521931,-0.00454102
 ,-0.00569070,0.00284597,-0.00157038,-0.00007622,-0.00050680,-0.0000382
 5,-0.00151318,0.00186248,-0.00027389,0.00144907,0.00185095,0.00052108,
 0.00009342,-0.00056902,0.00000459,-0.00501984,0.75492205,-0.00310804,0
 .00009339,-0.00117398,-0.00141667,0.00310369,0.00395013,0.00062354,0.0
 0678027,0.00281563,-0.01309177,-0.00982997,-0.06421606,0.00013460,-0.0
 0877426,0.00207163,-0.00166819,-0.00322109,0.00377094,0.00009760,0.000
 32686,0.00012199,0.00081521,0.00037316,-0.00230722,0.00090668,-0.00013
 407,-0.00232301,0.00009108,-0.00038344,0.00012601,0.12839408,0.0167892
 4,0.18531607,0.00026112,-0.00016323,-0.00006485,0.00035866,0.00016325,
 -0.00006063,0.00140578,0.00068941,0.00195663,0.00568957,0.00444667,-0.
 00154127,0.00042005,-0.00005236,-0.00251197,-0.00039181,0.00073864,0.0
 0065547,0.00000708,0.00002079,-0.00005163,0.00021017,-0.00008750,-0.00
 008990,0.00030240,0.00020267,-0.00001428,-0.00004153,0.00003182,0.0001
 8917,-0.25428895,-0.12333163,-0.05883462,0.25759838,-0.00058016,0.0001
 3343,-0.00016615,0.00076774,0.00090968,0.00021512,-0.00129704,0.000807
 03,-0.00014930,-0.02650236,-0.00976951,-0.00775936,0.00206858,-0.00459
 511,0.00012357,-0.00170252,-0.00044217,-0.00038731,0.00001894,-0.00000
 702,-0.00000119,0.00100446,-0.00029242,0.00024457,-0.00015924,-0.00000
 774,-0.00005428,0.00011871,-0.00036509,0.00004318,-0.11726226,-0.13566
 195,-0.03405970,0.13054065,0.13770500,-0.00007740,-0.00005430,0.000462
 24,-0.00004245,0.00005303,0.00059318,0.00189702,0.00038346,-0.00529176
 ,-0.00246963,0.00054165,0.01128698,-0.00244825,-0.00044524,0.00910956,
 0.00058218,0.00026745,-0.00258875,-0.00005169,-0.00000069,0.00018799,-
 0.00005714,-0.00004831,0.00051879,-0.00002513,0.00004278,0.00037282,0.
 00019178,0.00001989,-0.00069121,-0.05865266,-0.03568771,-0.06553083,0.
 06657980,0.03842524,0.04297846,0.00015231,0.00014680,0.00001240,-0.000
 38680,-0.00073858,0.00056073,0.00049170,0.00027821,-0.00247312,0.00504
 541,-0.00397923,-0.00196304,0.00139772,-0.00076651,0.00191483,0.000403
 11,-0.00018349,-0.00010596,-0.00003929,-0.00003015,0.00017993,0.000297
 98,-0.00019688,-0.00001019,0.00023652,0.00009482,-0.00006524,0.0000073
 9,-0.00000848,-0.00005709,-0.26026148,0.12329250,-0.05306446,-0.011508
 86,0.01293134,-0.00538139,0.26412064,0.00062982,0.00013640,0.00016935,
 0.00167498,-0.00046263,0.00051218,-0.00186029,-0.00455279,-0.00092781,
 0.02700526,-0.00953980,0.00659947,0.00120584,0.00080233,0.00052227,-0.
 00078377,0.00090892,-0.00020626,-0.00013200,-0.00034039,-0.00002421,0.
 00016641,-0.00000867,0.00003495,-0.00099525,-0.00029948,-0.00029063,-0
 .00001165,-0.00000265,-0.00000978,0.11723828,-0.13316510,0.02890943,-0
 .01316987,0.01160409,-0.00348427,-0.13087304,0.13497684,0.00002688,0.0
 0003977,0.00013092,0.00063308,-0.00013520,-0.00239426,-0.00253719,-0.0
 0035424,0.00905224,-0.00103363,-0.00171118,0.01159054,0.00197401,-0.00
 000671,-0.00529793,-0.00012392,-0.00004530,0.00074304,0.00017690,0.000
 00311,-0.00066596,0.00000071,-0.00006249,0.00031226,-0.00009793,0.0000
 0173,0.00046416,-0.00005719,-0.00000893,0.00020369,-0.05324611,0.03053
 344,-0.06199602,-0.00616438,0.00351647,0.00845313,0.06049282,-0.031771
 64,0.03921871,-0.08638887,-0.02101908,0.00063908,0.01192561,-0.0232983
 0,-0.00014923,-0.00620421,-0.00656938,-0.00380610,-0.00011519,0.001982
 95,0.00029036,-0.00552023,0.00154834,-0.00351101,0.00613807,0.02859174
 ,-0.00040372,-0.00253964,-0.00254356,0.00007526,-0.00006188,-0.0016673
 1,0.00038336,0.00004281,0.00131630,0.00057118,-0.00196518,0.00166716,0
 .00035594,-0.00137911,-0.00035733,-0.00015089,-0.00008841,-0.00016899,
 -0.00010362,0.00017130,-0.00001162,0.00001290,0.85414318,-0.00531825,-
 0.16167350,-0.00354419,-0.01126286,-0.01684039,-0.00382216,0.00217488,
 -0.00344499,0.00026255,-0.00029798,0.00838172,0.00020079,-0.00326007,-
 0.00278206,-0.00119007,0.01044889,-0.00428176,0.00234944,0.00170195,0.
 00026570,0.00055767,-0.00003219,0.00075532,0.00006427,0.00001445,0.001
 06127,0.00009390,-0.00143101,0.00188110,-0.00023430,0.00025528,-0.0055
 2486,-0.00007160,-0.00017634,-0.00020152,-0.00006173,0.00019916,-0.000
 22396,0.00004307,-0.14378039,0.65056060,0.00111078,-0.00775541,-0.0910
 5329,0.00021255,-0.00704997,0.00972112,-0.00354397,-0.00208345,0.00623
 803,0.00022196,0.00081293,-0.00089199,-0.00365512,0.00009930,0.0067659
 1,-0.00094824,0.00721465,0.01080410,0.00020250,-0.00058122,-0.00306795
 ,0.00043235,-0.00037429,-0.00157277,0.00053209,0.00044306,-0.00178348,
 0.00026286,0.00059693,-0.00301729,-0.00013266,-0.00023597,-0.00089908,
 -0.00010388,-0.00005976,0.00024945,0.00001926,-0.00001350,0.00012661,0
 .17231505,-0.02493171,0.24124234,-0.01309137,0.03370346,-0.00849654,-0
 .00514670,-0.00428842,-0.00140230,0.00226313,0.00090252,0.00083687,-0.
 00053789,-0.00012903,-0.00009363,-0.00062008,0.00109453,0.00034379,0.0
 0242534,0.00100830,0.00100284,0.00210058,0.00063147,0.00070673,0.00003
 793,0.00036618,-0.00009515,0.00005934,0.00035092,-0.00008667,0.0008825
 9,-0.00116264,0.00004852,0.00069405,-0.00064631,0.00012676,0.00003064,
 0.00010044,0.00004519,-0.00006107,-0.00006810,-0.00003883,-0.53606746,
 0.25885724,-0.11698388,0.64235901,0.04631598,-0.03467240,0.01071568,0.
 00105767,-0.00415485,0.00017116,0.00004269,0.00298892,0.00012371,0.000
 51479,-0.00347770,0.00003978,0.00323277,-0.00021935,0.00091361,-0.0046
 9944,-0.00901015,-0.00149511,0.00105451,-0.00206490,0.00023487,0.00007
 737,-0.00018142,0.00000237,-0.00015083,-0.00093224,-0.00008102,-0.0000
 4135,-0.00000561,-0.00002830,0.00011976,0.00202250,0.00008834,0.000072
 15,0.00009405,0.00002596,-0.00009862,0.00009817,-0.00002578,0.26189576
 ,-0.27226151,0.06422821,-0.30918997,0.28331609,-0.00811833,0.00733204,
 0.02038841,-0.00124249,-0.00126341,-0.00076839,0.00081103,0.00035466,-
 0.00052753,-0.00007433,-0.00013296,-0.00022728,0.00040753,0.00034057,-
 0.00165909,0.00083173,0.00003645,-0.00097569,0.00071947,0.00012130,-0.
 00026705,-0.00010375,0.00007980,0.00040799,-0.00010167,0.00005356,0.00
 039589,0.00008236,-0.00032925,0.00058329,0.00014982,-0.00011715,0.0001
 8573,0.00004435,0.00003357,-0.00011368,-0.00003976,-0.00001760,0.00006
 490,-0.11689220,0.06341235,-0.10053514,0.15532794,-0.07531710,0.068229
 07,-0.00491382,-0.00989404,-0.00411414,0.00045526,-0.00096538,-0.00013
 370,0.00024479,0.00110807,0.00017501,-0.00036350,-0.00180655,-0.000161
 85,0.00152732,0.00089738,0.00057438,-0.00209136,-0.00133539,-0.0005783
 6,0.00078987,0.00185652,0.00023077,0.00008218,-0.00006977,0.00002590,-
 0.00004233,-0.00028143,-0.00004404,0.00101298,0.00013715,0.00025149,0.
 00045690,0.00097648,0.00014591,0.00004752,0.00012406,0.00002961,-0.000
 08271,0.00000221,-0.00002746,-0.23601300,-0.05656113,-0.04833930,-0.09
 652517,-0.00675682,-0.03380229,0.38590755,-0.03970482,-0.03033162,-0.0
 1184114,0.00379654,-0.00787655,0.00075669,-0.00275291,0.00031652,-0.00
 072026,-0.00029673,-0.00326309,-0.00017861,0.00021771,0.00267981,0.000
 15428,0.00044040,-0.00758181,-0.00010699,0.00017885,0.00043766,0.00005
 693,0.00016740,-0.00078333,0.00002204,-0.00008296,-0.00020715,-0.00003
 120,-0.00083740,-0.00382825,-0.00034232,-0.00014304,0.00181687,0.00001
 547,0.00009703,0.00011715,0.00003101,-0.00009557,0.00009867,-0.0000232
 7,-0.08881085,-0.16792684,-0.02699932,0.00999794,0.03614493,0.00290518
 ,0.03738390,0.64724154,-0.00500867,-0.00384364,0.00785707,0.00000919,-
 0.00052069,0.00083258,0.00005916,0.00031528,-0.00025833,-0.00011655,-0
 .00058372,-0.00001100,0.00055400,0.00033658,-0.00035512,-0.00052484,-0
 .00058317,-0.00024358,0.00018059,0.00050711,0.00020035,0.00003299,-0.0
 0004155,-0.00001447,-0.00003809,-0.00008441,0.00007766,0.00022222,-0.0
 0008088,0.00014803,0.00011235,0.00031582,0.00006170,0.00002882,0.00003
 827,-0.00004020,-0.00003042,0.00000296,0.00001192,-0.04930710,-0.01834
 740,-0.07593002,-0.03329963,-0.00158981,0.01973369,0.09366666,0.028217
 77,0.06692311,-0.00488501,-0.00243304,-0.00294462,0.00067989,-0.000896
 52,0.00018346,-0.00042549,-0.00037110,-0.00000265,-0.00005290,0.000463
 98,0.00003251,0.00027939,-0.00011963,0.00007218,-0.00059626,0.00093800
 ,-0.00008777,-0.00005212,-0.00011858,-0.00006727,0.00001229,-0.0001136
 0,-0.00002307,0.00002684,0.00001908,-0.00002464,0.00064311,-0.00021223
 ,0.00019512,0.00004102,-0.00015385,-0.00000079,-0.00001178,-0.00000235
 ,-0.00001622,0.00001613,-0.00001723,0.00000936,0.00392221,-0.05153164,
 -0.00160234,0.00119712,0.00655361,0.00200059,-0.05049248,0.08044450,-0
 .00654070,0.04969803,-0.00233968,-0.00008969,-0.00080492,0.00062860,0.
 00011576,0.00017515,-0.00020415,-0.00037381,-0.00005226,-0.00000890,0.
 00080184,0.00002534,-0.00005174,-0.00050980,-0.00002908,-0.00048298,0.
 00135512,-0.00008391,-0.00016209,-0.00016013,-0.00005383,0.00000654,-0
 .00002951,-0.00000170,0.00002322,0.00001539,0.00000306,0.00012573,-0.0
 0005465,0.00003534,0.00002854,-0.00041948,-0.00000573,-0.00002215,-0.0
 0002791,-0.00000823,0.00002771,-0.00002996,0.00000715,-0.00877545,-0.0
 2774431,-0.00331048,0.00847149,0.00231545,0.00250800,0.03518474,-0.467
 05450,-0.00405854,-0.03244942,0.49189019,-0.00294181,-0.00083005,0.005
 00486,0.00022924,-0.00023395,-0.00004981,0.00000228,-0.00009706,-0.000
 45924,0.00001833,0.00015223,-0.00011274,0.00007418,-0.00004737,0.00001
 544,-0.00013053,0.00029727,-0.00018985,-0.00006857,-0.00004217,0.00016
 570,-0.00001945,-0.00003393,0.00007931,-0.00002450,0.00000195,0.000114
 28,0.00020528,-0.00005532,-0.00005481,0.00000469,-0.00005468,0.0000263
 6,-0.00001682,-0.00000292,0.00004385,0.00001071,-0.00000490,-0.0000179
 6,-0.00031926,-0.01478087,0.00360345,0.00205798,0.00199342,-0.00491512
 ,-0.00789860,0.00808373,-0.01899339,0.00881684,0.00565463,0.01573966\\
 0.00000059,0.00000276,-0.00000150,-0.00000101,-0.00000245,0.00000020,-
 0.00000136,0.00000113,-0.00000037,0.00000081,0.00000040,0.00000016,0.0
 0000007,-0.00000155,0.00000032,-0.00000004,0.00000021,0.00000055,0.000
 00009,0.00000046,0.00000034,0.00000040,-0.00000004,-0.00000015,-0.0000
 0024,0.00000014,0.00000012,0.00000013,-0.00000021,-0.00000013,-0.00000
 017,-0.00000107,-0.00000019,-0.00000022,0.00000061,0.00000018,-0.00000
 002,0.00000055,-0.00000019,0.00000076,-0.00000345,0.00000023,0.0000000
 4,0.00000120,0.00000025,0.00000010,0.00000032,0.00000026,0.00000005,0.
 00000098,-0.00000009\\\@


 EDUCATION DOESN'T COST 
           ... IT PAYS!

 -- POSTMARK, UNIV. OF MISSISSIPPI, DEC 78
 Job cpu time:       0 days  0 hours 26 minutes 36.5 seconds.
 Elapsed time:       0 days  0 hours 26 minutes 38.7 seconds.
 File lengths (MBytes):  RWF=    182 Int=      0 D2E=      0 Chk=     12 Scr=      1
 Normal termination of Gaussian 16 at Wed Jan 22 15:54:07 2025.
