 Entering Gaussian System, Link 0=g16
 Initial command:
 /sw/cluster/pub/apps//g16/l1.exe "/data/mmaximo/27750/Gau-1916530.inp" -scrdir="/data/mmaximo/27750/"
 Entering Link 1 = /sw/cluster/pub/apps//g16/l1.exe PID=   1916531.
  
 Copyright (c) 1988,1990,1992,1993,1995,1998,2003,2009,2016,
            Gaussian, Inc.  All Rights Reserved.
  
 This is part of the Gaussian(R) 16 program.  It is based on
 the Gaussian(R) 09 system (copyright 2009, Gaussian, Inc.),
 the Gaussian(R) 03 system (copyright 2003, Gaussian, Inc.),
 the Gaussian(R) 98 system (copyright 1998, Gaussian, Inc.),
 the Gaussian(R) 94 system (copyright 1995, Gaussian, Inc.),
 the Gaussian 92(TM) system (copyright 1992, Gaussian, Inc.),
 the Gaussian 90(TM) system (copyright 1990, Gaussian, Inc.),
 the Gaussian 88(TM) system (copyright 1988, Gaussian, Inc.),
 the Gaussian 86(TM) system (copyright 1986, Carnegie Mellon
 University), and the Gaussian 82(TM) system (copyright 1983,
 Carnegie Mellon University). Gaussian is a federally registered
 trademark of Gaussian, Inc.
  
 This software contains proprietary and confidential information,
 including trade secrets, belonging to Gaussian, Inc.
  
 This software is provided under written license and may be
 used, copied, transmitted, or stored only in accord with that
 written license.
  
 The following legend is applicable only to US Government
 contracts under FAR:
  
                    RESTRICTED RIGHTS LEGEND
  
 Use, reproduction and disclosure by the US Government is
 subject to restrictions as set forth in subparagraphs (a)
 and (c) of the Commercial Computer Software - Restricted
 Rights clause in FAR 52.227-19.
  
 Gaussian, Inc.
 340 Quinnipiac St., Bldg. 40, Wallingford CT 06492
  
  
 ---------------------------------------------------------------
 Warning -- This program may not be used in any manner that
 competes with the business of Gaussian, Inc. or will provide
 assistance to any competitor of Gaussian, Inc.  The licensee
 of this program is prohibited from giving any competitor of
 Gaussian, Inc. access to this program.  By using this program,
 the user acknowledges that Gaussian, Inc. is engaged in the
 business of creating and licensing software in the field of
 computational chemistry and represents and warrants to the
 licensee that it is not a competitor of Gaussian, Inc. and that
 it will not use this program in any manner prohibited above.
 ---------------------------------------------------------------
  

 Cite this work as:
 Gaussian 16, Revision A.03,
 M. J. Frisch, G. W. Trucks, H. B. Schlegel, G. E. Scuseria, 
 M. A. Robb, J. R. Cheeseman, G. Scalmani, V. Barone, 
 G. A. Petersson, H. Nakatsuji, X. Li, M. Caricato, A. V. Marenich, 
 J. Bloino, B. G. Janesko, R. Gomperts, B. Mennucci, H. P. Hratchian, 
 J. V. Ortiz, A. F. Izmaylov, J. L. Sonnenberg, D. Williams-Young, 
 F. Ding, F. Lipparini, F. Egidi, J. Goings, B. Peng, A. Petrone, 
 T. Henderson, D. Ranasinghe, V. G. Zakrzewski, J. Gao, N. Rega, 
 G. Zheng, W. Liang, M. Hada, M. Ehara, K. Toyota, R. Fukuda, 
 J. Hasegawa, M. Ishida, T. Nakajima, Y. Honda, O. Kitao, H. Nakai, 
 T. Vreven, K. Throssell, J. A. Montgomery, Jr., J. E. Peralta, 
 F. Ogliaro, M. J. Bearpark, J. J. Heyd, E. N. Brothers, K. N. Kudin, 
 V. N. Staroverov, T. A. Keith, R. Kobayashi, J. Normand, 
 K. Raghavachari, A. P. Rendell, J. C. Burant, S. S. Iyengar, 
 J. Tomasi, M. Cossi, J. M. Millam, M. Klene, C. Adamo, R. Cammi, 
 J. W. Ochterski, R. L. Martin, K. Morokuma, O. Farkas, 
 J. B. Foresman, and D. J. Fox, Gaussian, Inc., Wallingford CT, 2016.
 
 ******************************************
 Gaussian 16:  ES64L-G16RevA.03 25-Dec-2016
                14-Jan-2025 
 ******************************************
 %chk=C6H5NH2.chk
 ----------------------------------------
 #P B3LYP/def2tzvp nosymm Density=Current
 ----------------------------------------
 1/30=1,38=1,172=1/1;
 2/12=2,15=1,17=6,18=5,40=1/2;
 3/5=44,7=101,11=2,25=1,30=1,74=-5/1,2,3;
 4//1;
 5/5=2,38=5/2;
 6/7=2,8=2,9=2,10=2,22=-1,28=1/1;
 99/5=1,9=1/99;
 Leave Link    1 at Tue Jan 14 14:01:56 2025, MaxMem=           0 cpu:               0.0 elap:               0.0
 (Enter /sw/cluster/pub/apps//g16/l101.exe)
 ------------
 Single-Point
 ------------
 Symbolic Z-matrix:
 Charge =  0 Multiplicity = 1
 C                     0.93537   0.        0.00238 
 C                     0.21992   1.20313   0.00309 
 C                    -1.16771   1.19774   0.00309 
 C                    -1.87501   0.        0.00327 
 C                    -1.16771  -1.19774   0.00309 
 C                     0.21992  -1.20313   0.00309 
 N                     2.32811   0.        0.06046 
 H                     0.75852   2.14411   0.00763 
 H                    -1.70018   2.14105   0.00211 
 H                    -2.95687   0.        0.00255 
 H                    -1.70018  -2.14105   0.00211 
 H                     0.75852  -2.14411   0.00763 
 H                     2.77734  -0.83662  -0.27662 
 H                     2.77734   0.83662  -0.27662 
 
 ITRead=  0  0  0  0  0  0  0  0  0  0  0  0  0  0
 MicOpt= -1 -1 -1 -1 -1 -1 -1 -1 -1 -1 -1 -1 -1 -1
 NAtoms=     14 NQM=       14 NQMF=       0 NMMI=      0 NMMIF=      0
                NMic=       0 NMicF=      0.
                    Isotopes and Nuclear Properties:
 (Nuclear quadrupole moments (NQMom) in fm**2, nuclear magnetic moments (NMagM)
  in nuclear magnetons)

  Atom         1           2           3           4           5           6           7           8           9          10
 IAtWgt=          12          12          12          12          12          12          14           1           1           1
 AtmWgt=  12.0000000  12.0000000  12.0000000  12.0000000  12.0000000  12.0000000  14.0030740   1.0078250   1.0078250   1.0078250
 NucSpn=           0           0           0           0           0           0           2           1           1           1
 AtZEff=  -0.0000000  -0.0000000  -0.0000000  -0.0000000  -0.0000000  -0.0000000  -0.0000000  -0.0000000  -0.0000000  -0.0000000
 NQMom=    0.0000000   0.0000000   0.0000000   0.0000000   0.0000000   0.0000000   2.0440000   0.0000000   0.0000000   0.0000000
 NMagM=    0.0000000   0.0000000   0.0000000   0.0000000   0.0000000   0.0000000   0.4037610   2.7928460   2.7928460   2.7928460
 AtZNuc=   6.0000000   6.0000000   6.0000000   6.0000000   6.0000000   6.0000000   7.0000000   1.0000000   1.0000000   1.0000000

  Atom        11          12          13          14
 IAtWgt=           1           1           1           1
 AtmWgt=   1.0078250   1.0078250   1.0078250   1.0078250
 NucSpn=           1           1           1           1
 AtZEff=  -0.0000000  -0.0000000  -0.0000000  -0.0000000
 NQMom=    0.0000000   0.0000000   0.0000000   0.0000000
 NMagM=    2.7928460   2.7928460   2.7928460   2.7928460
 AtZNuc=   1.0000000   1.0000000   1.0000000   1.0000000
 Leave Link  101 at Tue Jan 14 14:01:56 2025, MaxMem=   104857600 cpu:               0.0 elap:               0.0
 (Enter /sw/cluster/pub/apps//g16/l202.exe)
                          Input orientation:                          
 ---------------------------------------------------------------------
 Center     Atomic      Atomic             Coordinates (Angstroms)
 Number     Number       Type             X           Y           Z
 ---------------------------------------------------------------------
      1          6           0        0.935371    0.000000    0.002383
      2          6           0        0.219919    1.203128    0.003085
      3          6           0       -1.167709    1.197740    0.003085
      4          6           0       -1.875006    0.000000    0.003271
      5          6           0       -1.167709   -1.197740    0.003085
      6          6           0        0.219919   -1.203128    0.003085
      7          7           0        2.328112    0.000000    0.060463
      8          1           0        0.758521    2.144115    0.007627
      9          1           0       -1.700175    2.141046    0.002115
     10          1           0       -2.956867    0.000000    0.002545
     11          1           0       -1.700175   -2.141046    0.002115
     12          1           0        0.758521   -2.144115    0.007627
     13          1           0        2.777337   -0.836616   -0.276620
     14          1           0        2.777337    0.836616   -0.276620
 ---------------------------------------------------------------------
                    Distance matrix (angstroms):
                    1          2          3          4          5
     1  C    0.000000
     2  C    1.399782   0.000000
     3  C    2.420233   1.387639   0.000000
     4  C    2.810377   2.415829   1.390989   0.000000
     5  C    2.420233   2.773027   2.395479   1.390989   0.000000
     6  C    1.399782   2.406256   2.773027   2.415829   1.387639
     7  N    1.393952   2.428021   3.695760   4.203507   3.695760
     8  H    2.151402   1.084237   2.146162   3.395985   3.857250
     9  H    3.395613   2.136927   1.083212   2.148173   3.380978
    10  H    3.892239   3.396982   2.153060   1.081862   2.153060
    11  H    3.395613   3.856198   3.380978   2.148173   1.083212
    12  H    2.151402   3.390302   3.857250   3.395985   2.146162
    13  H    2.042207   3.283166   4.447497   4.735247   3.971402
    14  H    2.042207   2.598645   3.971402   4.735247   4.447497
                    6          7          8          9         10
     6  C    0.000000
     7  N    2.428021   0.000000
     8  H    3.390302   2.657750   0.000000
     9  H    3.856198   4.562301   2.458705   0.000000
    10  H    3.396982   5.285297   4.289681   2.482610   0.000000
    11  H    2.136927   4.562301   4.940428   4.282093   2.482610
    12  H    1.084237   2.657750   4.288230   4.940428   4.289681
    13  H    2.598645   1.007648   3.611256   5.384449   5.801635
    14  H    3.283166   1.007648   2.421976   4.671975   5.801635
                   11         12         13         14
    11  H    0.000000
    12  H    2.458705   0.000000
    13  H    4.671975   2.421976   0.000000
    14  H    5.384449   3.611256   1.673232   0.000000
 Symmetry turned off by external request.
 Stoichiometry    C6H7N
 Framework group  CS[SG(C2HN),X(C4H6)]
 Deg. of freedom    20
 Full point group                 CS      NOp   2
 Rotational constants (GHZ):           5.6599626           2.6048551           1.7864295
 Leave Link  202 at Tue Jan 14 14:01:56 2025, MaxMem=   104857600 cpu:               0.0 elap:               0.0
 (Enter /sw/cluster/pub/apps//g16/l301.exe)
 Standard basis: def2TZVP (5D, 7F)
 Ernie: Thresh=  0.10000D-02 Tol=  0.10000D-05 Strict=F.
   259 basis functions,   413 primitive gaussians,   294 cartesian basis functions
    25 alpha electrons       25 beta electrons
       nuclear repulsion energy       271.9826097733 Hartrees.
 IExCor=  402 DFT=T Ex+Corr=B3LYP ExCW=0 ScaHFX=  0.200000
 ScaDFX=  0.800000  0.720000  1.000000  0.810000 ScalE2=  1.000000  1.000000
 IRadAn=      5 IRanWt=     -1 IRanGd=            0 ICorTp=0 IEmpDi=  4
 NAtoms=   14 NActive=   14 NUniq=   14 SFac= 1.00D+00 NAtFMM=   60 NAOKFM=F Big=F
 Integral buffers will be    131072 words long.
 Raffenetti 2 integral format.
 Two-electron integral symmetry is turned off.
 Leave Link  301 at Tue Jan 14 14:01:56 2025, MaxMem=   104857600 cpu:               0.0 elap:               0.0
 (Enter /sw/cluster/pub/apps//g16/l302.exe)
 NPDir=0 NMtPBC=     1 NCelOv=     1 NCel=       1 NClECP=     1 NCelD=      1
         NCelK=      1 NCelE2=     1 NClLst=     1 CellRange=     0.0.
 One-electron integrals computed using PRISM.
   1 Symmetry operations used in ECPInt.
 ECPInt:  NShTT=    5565 NPrTT=   16828 LenC2=    5498 LenP2D=   13706.
 LDataN:  DoStor=T MaxTD1= 6 Len=  172
 NBasis=   259 RedAO= T EigKep=  9.62D-06  NBF=   259
 NBsUse=   259 1.00D-06 EigRej= -1.00D+00 NBFU=   259
 Precomputing XC quadrature grid using
 IXCGrd= 4 IRadAn=           5 IRanWt=          -1 IRanGd=           0 AccXCQ= 0.00D+00.
 Generated NRdTot=       0 NPtTot=           0 NUsed=           0 NTot=          32
 NSgBfM=   293   293   293   293   293 MxSgAt=    14 MxSgA2=    14.
 Leave Link  302 at Tue Jan 14 14:01:57 2025, MaxMem=   104857600 cpu:               0.2 elap:               0.2
 (Enter /sw/cluster/pub/apps//g16/l303.exe)
 DipDrv:  MaxL=1.
 Leave Link  303 at Tue Jan 14 14:01:57 2025, MaxMem=   104857600 cpu:               0.0 elap:               0.0
 (Enter /sw/cluster/pub/apps//g16/l401.exe)
 ExpMin= 9.52D-02 ExpMax= 1.97D+04 ExpMxC= 6.73D+02 IAcc=3 IRadAn=         5 AccDes= 0.00D+00
 Harris functional with IExCor=  402 and IRadAn=       5 diagonalized for initial guess.
 HarFok:  IExCor=  402 AccDes= 0.00D+00 IRadAn=         5 IDoV= 1 UseB2=F ITyADJ=14
 ICtDFT=  3500011 ScaDFX=  1.000000  1.000000  1.000000  1.000000
 FoFCou: FMM=F IPFlag=           0 FMFlag=      100000 FMFlg1=           0
         NFxFlg=           0 DoJE=T BraDBF=F KetDBF=T FulRan=T
         wScrn=  0.000000 ICntrl=       500 IOpCl=  0 I1Cent=   200000004 NGrid=           0
         NMat0=    1 NMatS0=      1 NMatT0=    0 NMatD0=    1 NMtDS0=    0 NMtDT0=    0
 Symmetry not used in FoFCou.
 Harris En= -287.767609736122    
 JPrj=0 DoOrth=F DoCkMO=F.
 Leave Link  401 at Tue Jan 14 14:01:59 2025, MaxMem=   104857600 cpu:               2.0 elap:               2.0
 (Enter /sw/cluster/pub/apps//g16/l502.exe)
 Two-electron integral symmetry not used.
 Closed shell SCF:
 Using DIIS extrapolation, IDIIS=  1040.
 NGot=   104857600 LenX=   104680916 LenY=   104594039
 Requested convergence on RMS density matrix=1.00D-08 within 128 cycles.
 Requested convergence on MAX density matrix=1.00D-06.
 Requested convergence on             energy=1.00D-06.
 No special actions if energy rises.
 Fock matrices will be formed incrementally for  20 cycles.
 Integral accuracy reduced to 1.0D-05 until final iterations.

 Cycle   1  Pass 0  IDiag  1:
 FoFJK:  IHMeth= 1 ICntrl=       0 DoSepK=F KAlg= 0 I1Cent=           0 FoldK=F
 IRaf= 970000000 NMat=       1 IRICut=       1 DoRegI=T DoRafI=F ISym2E= 0 IDoP0=0 IntGTp=1.
 FoFCou: FMM=F IPFlag=           0 FMFlag=      100000 FMFlg1=           0
         NFxFlg=           0 DoJE=F BraDBF=F KetDBF=F FulRan=T
         wScrn=  0.000000 ICntrl=         0 IOpCl=  0 I1Cent=           0 NGrid=           0
         NMat0=    1 NMatS0=      1 NMatT0=    0 NMatD0=    1 NMtDS0=    0 NMtDT0=    0
 Symmetry not used in FoFCou.
 E= -287.491635161788    
 DIIS: error= 2.78D-02 at cycle   1 NSaved=   1.
 NSaved= 1 IEnMin= 1 EnMin= -287.491635161788     IErMin= 1 ErrMin= 2.78D-02
 ErrMax= 2.78D-02  0.00D+00 EMaxC= 1.00D-01 BMatC= 2.34D-01 BMatP= 2.34D-01
 IDIUse=3 WtCom= 7.22D-01 WtEn= 2.78D-01
 Coeff-Com:  0.100D+01
 Coeff-En:   0.100D+01
 Coeff:      0.100D+01
 Gap=     0.215 Goal=   None    Shift=    0.000
 GapD=    0.215 DampG=1.000 DampE=0.500 DampFc=0.5000 IDamp=-1.
 Damping current iteration by 5.00D-01
 RMSDP=3.88D-03 MaxDP=1.16D-01              OVMax= 2.07D-01

 Cycle   2  Pass 0  IDiag  1:
 RMSU=  1.91D-03    CP:  9.68D-01
 E= -287.586706999086     Delta-E=       -0.095071837298 Rises=F Damp=T
 DIIS: error= 8.45D-03 at cycle   2 NSaved=   2.
 NSaved= 2 IEnMin= 2 EnMin= -287.586706999086     IErMin= 2 ErrMin= 8.45D-03
 ErrMax= 8.45D-03  0.00D+00 EMaxC= 1.00D-01 BMatC= 1.18D-02 BMatP= 2.34D-01
 IDIUse=3 WtCom= 9.16D-01 WtEn= 8.45D-02
 Coeff-Com:  0.619D-01 0.938D+00
 Coeff-En:   0.158D+00 0.842D+00
 Coeff:      0.700D-01 0.930D+00
 Gap=     0.242 Goal=   None    Shift=    0.000
 RMSDP=1.11D-03 MaxDP=2.77D-02 DE=-9.51D-02 OVMax= 1.22D-01

 Cycle   3  Pass 0  IDiag  1:
 RMSU=  9.65D-04    CP:  9.57D-01  7.19D-01
 E= -287.714609043467     Delta-E=       -0.127902044382 Rises=F Damp=F
 DIIS: error= 6.00D-03 at cycle   3 NSaved=   3.
 NSaved= 3 IEnMin= 3 EnMin= -287.714609043467     IErMin= 3 ErrMin= 6.00D-03
 ErrMax= 6.00D-03  0.00D+00 EMaxC= 1.00D-01 BMatC= 3.80D-03 BMatP= 1.18D-02
 IDIUse=3 WtCom= 9.40D-01 WtEn= 6.00D-02
 Coeff-Com: -0.272D-01 0.322D+00 0.705D+00
 Coeff-En:   0.000D+00 0.000D+00 0.100D+01
 Coeff:     -0.256D-01 0.303D+00 0.722D+00
 Gap=     0.204 Goal=   None    Shift=    0.000
 RMSDP=2.64D-04 MaxDP=6.91D-03 DE=-1.28D-01 OVMax= 3.55D-02

 Cycle   4  Pass 0  IDiag  1:
 RMSU=  2.30D-04    CP:  9.57D-01  7.70D-01  9.13D-01
 E= -287.716560129374     Delta-E=       -0.001951085906 Rises=F Damp=F
 DIIS: error= 5.24D-03 at cycle   4 NSaved=   4.
 NSaved= 4 IEnMin= 4 EnMin= -287.716560129374     IErMin= 4 ErrMin= 5.24D-03
 ErrMax= 5.24D-03  0.00D+00 EMaxC= 1.00D-01 BMatC= 1.78D-03 BMatP= 3.80D-03
 IDIUse=3 WtCom= 9.48D-01 WtEn= 5.24D-02
 Coeff-Com: -0.235D-01 0.123D+00 0.447D+00 0.453D+00
 Coeff-En:   0.000D+00 0.000D+00 0.334D+00 0.666D+00
 Coeff:     -0.223D-01 0.116D+00 0.442D+00 0.465D+00
 Gap=     0.200 Goal=   None    Shift=    0.000
 RMSDP=1.65D-04 MaxDP=4.30D-03 DE=-1.95D-03 OVMax= 2.29D-02

 Cycle   5  Pass 0  IDiag  1:
 RMSU=  9.56D-05    CP:  9.56D-01  7.69D-01  9.50D-01  4.38D-01
 E= -287.718327707801     Delta-E=       -0.001767578427 Rises=F Damp=F
 DIIS: error= 1.46D-03 at cycle   5 NSaved=   5.
 NSaved= 5 IEnMin= 5 EnMin= -287.718327707801     IErMin= 5 ErrMin= 1.46D-03
 ErrMax= 1.46D-03  0.00D+00 EMaxC= 1.00D-01 BMatC= 1.49D-04 BMatP= 1.78D-03
 IDIUse=3 WtCom= 9.85D-01 WtEn= 1.46D-02
 Coeff-Com: -0.808D-02 0.181D-01 0.127D+00 0.264D+00 0.599D+00
 Coeff-En:   0.000D+00 0.000D+00 0.000D+00 0.753D-01 0.925D+00
 Coeff:     -0.797D-02 0.178D-01 0.125D+00 0.261D+00 0.604D+00
 Gap=     0.201 Goal=   None    Shift=    0.000
 RMSDP=4.45D-05 MaxDP=1.17D-03 DE=-1.77D-03 OVMax= 6.47D-03

 Cycle   6  Pass 0  IDiag  1:
 RMSU=  1.69D-05    CP:  9.56D-01  7.70D-01  9.58D-01  5.55D-01  6.85D-01
 E= -287.718492929739     Delta-E=       -0.000165221938 Rises=F Damp=F
 DIIS: error= 1.42D-04 at cycle   6 NSaved=   6.
 NSaved= 6 IEnMin= 6 EnMin= -287.718492929739     IErMin= 6 ErrMin= 1.42D-04
 ErrMax= 1.42D-04  0.00D+00 EMaxC= 1.00D-01 BMatC= 4.03D-06 BMatP= 1.49D-04
 IDIUse=3 WtCom= 9.99D-01 WtEn= 1.42D-03
 Coeff-Com: -0.313D-02 0.464D-02 0.486D-01 0.114D+00 0.300D+00 0.536D+00
 Coeff-En:   0.000D+00 0.000D+00 0.000D+00 0.000D+00 0.000D+00 0.100D+01
 Coeff:     -0.312D-02 0.464D-02 0.485D-01 0.114D+00 0.299D+00 0.537D+00
 Gap=     0.201 Goal=   None    Shift=    0.000
 RMSDP=6.31D-06 MaxDP=3.34D-04 DE=-1.65D-04 OVMax= 7.52D-04

 Initial convergence to 1.0D-05 achieved.  Increase integral accuracy.
 Cycle   7  Pass 1  IDiag  1:
 E= -287.718496222323     Delta-E=       -0.000003292583 Rises=F Damp=F
 DIIS: error= 1.04D-04 at cycle   1 NSaved=   1.
 NSaved= 1 IEnMin= 1 EnMin= -287.718496222323     IErMin= 1 ErrMin= 1.04D-04
 ErrMax= 1.04D-04  0.00D+00 EMaxC= 1.00D-01 BMatC= 6.71D-07 BMatP= 6.71D-07
 IDIUse=3 WtCom= 9.99D-01 WtEn= 1.04D-03
 Coeff-Com:  0.100D+01
 Coeff-En:   0.100D+01
 Coeff:      0.100D+01
 Gap=     0.201 Goal=   None    Shift=    0.000
 RMSDP=6.31D-06 MaxDP=3.34D-04 DE=-3.29D-06 OVMax= 3.12D-04

 Cycle   8  Pass 1  IDiag  1:
 RMSU=  4.98D-05    CP:  1.00D+00
 E= -287.718496189901     Delta-E=        0.000000032422 Rises=F Damp=F
 DIIS: error= 4.64D-05 at cycle   2 NSaved=   2.
 NSaved= 2 IEnMin= 1 EnMin= -287.718496222323     IErMin= 2 ErrMin= 4.64D-05
 ErrMax= 4.64D-05  0.00D+00 EMaxC= 1.00D-01 BMatC= 4.35D-07 BMatP= 6.71D-07
 IDIUse=1 WtCom= 1.00D+00 WtEn= 0.00D+00
 Coeff-Com:  0.432D+00 0.568D+00
 Coeff:      0.432D+00 0.568D+00
 Gap=     0.201 Goal=   None    Shift=    0.000
 RMSDP=2.55D-06 MaxDP=1.04D-04 DE= 3.24D-08 OVMax= 2.50D-04

 Cycle   9  Pass 1  IDiag  1:
 RMSU=  2.51D-06    CP:  1.00D+00  9.93D-01
 E= -287.718496530475     Delta-E=       -0.000000340574 Rises=F Damp=F
 DIIS: error= 1.95D-05 at cycle   3 NSaved=   3.
 NSaved= 3 IEnMin= 3 EnMin= -287.718496530475     IErMin= 3 ErrMin= 1.95D-05
 ErrMax= 1.95D-05  0.00D+00 EMaxC= 1.00D-01 BMatC= 5.97D-08 BMatP= 4.35D-07
 IDIUse=1 WtCom= 1.00D+00 WtEn= 0.00D+00
 Coeff-Com:  0.841D-02 0.271D+00 0.721D+00
 Coeff:      0.841D-02 0.271D+00 0.721D+00
 Gap=     0.201 Goal=   None    Shift=    0.000
 RMSDP=8.65D-07 MaxDP=2.96D-05 DE=-3.41D-07 OVMax= 6.81D-05

 Cycle  10  Pass 1  IDiag  1:
 RMSU=  4.30D-07    CP:  1.00D+00  1.00D+00  8.20D-01
 E= -287.718496582403     Delta-E=       -0.000000051928 Rises=F Damp=F
 DIIS: error= 2.79D-06 at cycle   4 NSaved=   4.
 NSaved= 4 IEnMin= 4 EnMin= -287.718496582403     IErMin= 4 ErrMin= 2.79D-06
 ErrMax= 2.79D-06  0.00D+00 EMaxC= 1.00D-01 BMatC= 7.43D-10 BMatP= 5.97D-08
 IDIUse=1 WtCom= 1.00D+00 WtEn= 0.00D+00
 Coeff-Com: -0.292D-03 0.116D+00 0.321D+00 0.564D+00
 Coeff:     -0.292D-03 0.116D+00 0.321D+00 0.564D+00
 Gap=     0.201 Goal=   None    Shift=    0.000
 RMSDP=1.38D-07 MaxDP=2.99D-06 DE=-5.19D-08 OVMax= 1.72D-05

 Cycle  11  Pass 1  IDiag  1:
 RMSU=  1.15D-07    CP:  1.00D+00  1.01D+00  8.06D-01  8.77D-01
 E= -287.718496583006     Delta-E=       -0.000000000603 Rises=F Damp=F
 DIIS: error= 1.68D-06 at cycle   5 NSaved=   5.
 NSaved= 5 IEnMin= 5 EnMin= -287.718496583006     IErMin= 5 ErrMin= 1.68D-06
 ErrMax= 1.68D-06  0.00D+00 EMaxC= 1.00D-01 BMatC= 1.66D-10 BMatP= 7.43D-10
 IDIUse=1 WtCom= 1.00D+00 WtEn= 0.00D+00
 Coeff-Com: -0.770D-03 0.611D-01 0.170D+00 0.365D+00 0.405D+00
 Coeff:     -0.770D-03 0.611D-01 0.170D+00 0.365D+00 0.405D+00
 Gap=     0.201 Goal=   None    Shift=    0.000
 RMSDP=4.17D-08 MaxDP=8.80D-07 DE=-6.03D-10 OVMax= 6.49D-06

 Cycle  12  Pass 1  IDiag  1:
 RMSU=  3.33D-08    CP:  1.00D+00  1.01D+00  8.04D-01  8.99D-01  8.27D-01
 E= -287.718496583176     Delta-E=       -0.000000000171 Rises=F Damp=F
 DIIS: error= 1.49D-07 at cycle   6 NSaved=   6.
 NSaved= 6 IEnMin= 6 EnMin= -287.718496583176     IErMin= 6 ErrMin= 1.49D-07
 ErrMax= 1.49D-07  0.00D+00 EMaxC= 1.00D-01 BMatC= 3.35D-12 BMatP= 1.66D-10
 IDIUse=1 WtCom= 1.00D+00 WtEn= 0.00D+00
 Coeff-Com: -0.404D-03 0.268D-01 0.746D-01 0.166D+00 0.210D+00 0.523D+00
 Coeff:     -0.404D-03 0.268D-01 0.746D-01 0.166D+00 0.210D+00 0.523D+00
 Gap=     0.201 Goal=   None    Shift=    0.000
 RMSDP=8.40D-09 MaxDP=2.23D-07 DE=-1.71D-10 OVMax= 9.38D-07

 SCF Done:  E(RB3LYP) =  -287.718496583     A.U. after   12 cycles
            NFock= 12  Conv=0.84D-08     -V/T= 2.0052
 KE= 2.862382868957D+02 PE=-1.212150147806D+03 EE= 3.662107545543D+02
 Leave Link  502 at Tue Jan 14 14:03:13 2025, MaxMem=   104857600 cpu:              74.5 elap:              74.7
 (Enter /sw/cluster/pub/apps//g16/l601.exe)
 Copying SCF densities to generalized density rwf, IOpCl= 0 IROHF=0.

 **********************************************************************

            Population analysis using the SCF density.

 **********************************************************************

 Alpha  occ. eigenvalues --  -14.32247 -10.21331 -10.17047 -10.17047 -10.16597
 Alpha  occ. eigenvalues --  -10.16595 -10.16022  -0.92278  -0.83773  -0.74432
 Alpha  occ. eigenvalues --   -0.72602  -0.61267  -0.59908  -0.52702  -0.51220
 Alpha  occ. eigenvalues --   -0.47842  -0.43304  -0.43000  -0.41860  -0.38705
 Alpha  occ. eigenvalues --   -0.35847  -0.34169  -0.31555  -0.25342  -0.21034
 Alpha virt. eigenvalues --   -0.00915   0.00614   0.02999   0.05554   0.06466
 Alpha virt. eigenvalues --    0.09521   0.09596   0.12502   0.13101   0.13525
 Alpha virt. eigenvalues --    0.14937   0.19033   0.21244   0.21395   0.21819
 Alpha virt. eigenvalues --    0.23464   0.24498   0.25182   0.25389   0.26133
 Alpha virt. eigenvalues --    0.29287   0.30757   0.32251   0.32438   0.33839
 Alpha virt. eigenvalues --    0.34209   0.36132   0.38053   0.39652   0.40320
 Alpha virt. eigenvalues --    0.40877   0.41667   0.43360   0.43704   0.44582
 Alpha virt. eigenvalues --    0.44838   0.47128   0.47209   0.48139   0.49989
 Alpha virt. eigenvalues --    0.51004   0.51333   0.53302   0.56648   0.56907
 Alpha virt. eigenvalues --    0.62031   0.65599   0.67157   0.67367   0.68325
 Alpha virt. eigenvalues --    0.70471   0.72450   0.75210   0.75978   0.76630
 Alpha virt. eigenvalues --    0.81669   0.84681   0.86775   0.87022   0.87384
 Alpha virt. eigenvalues --    0.89731   0.99796   1.00251   1.02818   1.04224
 Alpha virt. eigenvalues --    1.05546   1.07398   1.11538   1.14933   1.17268
 Alpha virt. eigenvalues --    1.18641   1.20612   1.21452   1.22909   1.25350
 Alpha virt. eigenvalues --    1.27878   1.28714   1.32623   1.35928   1.36057
 Alpha virt. eigenvalues --    1.37725   1.41468   1.44308   1.45135   1.46915
 Alpha virt. eigenvalues --    1.48247   1.49151   1.51817   1.54543   1.56996
 Alpha virt. eigenvalues --    1.59477   1.62501   1.63682   1.65559   1.66763
 Alpha virt. eigenvalues --    1.69398   1.70298   1.71096   1.73459   1.74813
 Alpha virt. eigenvalues --    1.75633   1.81570   1.85124   1.89650   1.91300
 Alpha virt. eigenvalues --    1.91813   1.98554   2.01312   2.02493   2.07452
 Alpha virt. eigenvalues --    2.07899   2.09078   2.12355   2.15562   2.17942
 Alpha virt. eigenvalues --    2.20219   2.23963   2.26873   2.27201   2.32266
 Alpha virt. eigenvalues --    2.40854   2.42455   2.46399   2.50288   2.52082
 Alpha virt. eigenvalues --    2.53435   2.55750   2.57797   2.60318   2.61097
 Alpha virt. eigenvalues --    2.62940   2.66512   2.66930   2.67417   2.69152
 Alpha virt. eigenvalues --    2.69737   2.72836   2.75813   2.76911   2.77180
 Alpha virt. eigenvalues --    2.77967   2.82288   2.83977   2.84872   2.86485
 Alpha virt. eigenvalues --    2.87069   2.89105   2.90840   2.97884   2.98720
 Alpha virt. eigenvalues --    3.00312   3.07076   3.09365   3.10379   3.13163
 Alpha virt. eigenvalues --    3.13861   3.14037   3.14964   3.15717   3.22144
 Alpha virt. eigenvalues --    3.22248   3.23311   3.23921   3.26258   3.30230
 Alpha virt. eigenvalues --    3.31361   3.31977   3.35561   3.36373   3.40711
 Alpha virt. eigenvalues --    3.41695   3.43070   3.43467   3.47108   3.48189
 Alpha virt. eigenvalues --    3.49446   3.54470   3.54482   3.61617   3.62791
 Alpha virt. eigenvalues --    3.70642   3.74314   3.76465   3.79321   3.84316
 Alpha virt. eigenvalues --    3.84782   3.93745   4.00378   4.00627   4.04622
 Alpha virt. eigenvalues --    4.06561   4.08055   4.15750   4.17259   4.18758
 Alpha virt. eigenvalues --    4.20733   4.21189   4.24339   4.25510   4.28132
 Alpha virt. eigenvalues --    4.28967   4.41792   4.42162   4.56649   4.60328
 Alpha virt. eigenvalues --    4.60955   4.66152   4.68878   4.75224   4.76264
 Alpha virt. eigenvalues --    4.82650   4.84306   4.88273   4.93737   4.97659
 Alpha virt. eigenvalues --    5.05701   5.10283   5.18917   5.26584   5.26765
 Alpha virt. eigenvalues --    5.28670   5.34629   5.47346   5.56136   5.56449
 Alpha virt. eigenvalues --    5.85915   5.90353  22.06239  22.58497  22.59781
 Alpha virt. eigenvalues --   22.70679  22.78946  23.17864  32.01680
          Condensed to atoms (all electrons):
               1          2          3          4          5          6
     1  C    4.739404   0.469568  -0.013134  -0.074848  -0.013134   0.469568
     2  C    0.469568   5.025692   0.482193  -0.011051  -0.068103   0.002652
     3  C   -0.013134   0.482193   4.863439   0.489906  -0.011842  -0.068103
     4  C   -0.074848  -0.011051   0.489906   4.923458   0.489906  -0.011051
     5  C   -0.013134  -0.068103  -0.011842   0.489906   4.863439   0.482193
     6  C    0.469568   0.002652  -0.068103  -0.011051   0.482193   5.025692
     7  N    0.292466  -0.043709  -0.004938   0.005909  -0.004938  -0.043709
     8  H   -0.060663   0.411720  -0.025998   0.007426  -0.000614   0.006484
     9  H    0.012918  -0.056234   0.425365  -0.052180   0.010788  -0.002699
    10  H   -0.002604   0.012197  -0.053858   0.426067  -0.053858   0.012197
    11  H    0.012918  -0.002699   0.010788  -0.052180   0.425365  -0.056234
    12  H   -0.060663   0.006484  -0.000614   0.007426  -0.025998   0.411720
    13  H   -0.034447   0.001960  -0.000909  -0.000058   0.001283  -0.008733
    14  H   -0.034447  -0.008733   0.001283  -0.000058  -0.000909   0.001960
               7          8          9         10         11         12
     1  C    0.292466  -0.060663   0.012918  -0.002604   0.012918  -0.060663
     2  C   -0.043709   0.411720  -0.056234   0.012197  -0.002699   0.006484
     3  C   -0.004938  -0.025998   0.425365  -0.053858   0.010788  -0.000614
     4  C    0.005909   0.007426  -0.052180   0.426067  -0.052180   0.007426
     5  C   -0.004938  -0.000614   0.010788  -0.053858   0.425365  -0.025998
     6  C   -0.043709   0.006484  -0.002699   0.012197  -0.056234   0.411720
     7  N    6.506951  -0.000564  -0.000285   0.000057  -0.000285  -0.000564
     8  H   -0.000564   0.573051  -0.008591  -0.000294   0.000085  -0.000427
     9  H   -0.000285  -0.008591   0.575271  -0.007229  -0.000353   0.000085
    10  H    0.000057  -0.000294  -0.007229   0.573170  -0.007229  -0.000294
    11  H   -0.000285   0.000085  -0.000353  -0.007229   0.575271  -0.008591
    12  H   -0.000564  -0.000427   0.000085  -0.000294  -0.008591   0.573051
    13  H    0.372913  -0.000408   0.000033  -0.000005  -0.000046   0.003991
    14  H    0.372913   0.003991  -0.000046  -0.000005   0.000033  -0.000408
              13         14
     1  C   -0.034447  -0.034447
     2  C    0.001960  -0.008733
     3  C   -0.000909   0.001283
     4  C   -0.000058  -0.000058
     5  C    0.001283  -0.000909
     6  C   -0.008733   0.001960
     7  N    0.372913   0.372913
     8  H   -0.000408   0.003991
     9  H    0.000033  -0.000046
    10  H   -0.000005  -0.000005
    11  H   -0.000046   0.000033
    12  H    0.003991  -0.000408
    13  H    0.480360  -0.034540
    14  H   -0.034540   0.480360
 Mulliken charges:
               1
     1  C    0.297100
     2  C   -0.221935
     3  C   -0.093578
     4  C   -0.148673
     5  C   -0.093578
     6  C   -0.221935
     7  N   -0.452217
     8  H    0.094802
     9  H    0.103157
    10  H    0.101688
    11  H    0.103157
    12  H    0.094802
    13  H    0.218606
    14  H    0.218606
 Sum of Mulliken charges =  -0.00000
 Mulliken charges with hydrogens summed into heavy atoms:
               1
     1  C    0.297100
     2  C   -0.127133
     3  C    0.009579
     4  C   -0.046986
     5  C    0.009579
     6  C   -0.127133
     7  N   -0.015005
 Electronic spatial extent (au):  <R**2>=            684.2797
 Charge=             -0.0000 electrons
 Dipole moment (field-independent basis, Debye):
    X=              1.3700    Y=             -0.0000    Z=             -0.9383  Tot=              1.6605
 Quadrupole moment (field-independent basis, Debye-Ang):
   XX=            -35.1552   YY=            -37.0618   ZZ=            -46.7194
   XY=             -0.0000   XZ=             -3.0691   YZ=              0.0000
 Traceless Quadrupole moment (field-independent basis, Debye-Ang):
   XX=              4.4902   YY=              2.5837   ZZ=             -7.0739
   XY=             -0.0000   XZ=             -3.0691   YZ=              0.0000
 Octapole moment (field-independent basis, Debye-Ang**2):
  XXX=             17.3667  YYY=             -0.0000  ZZZ=             -0.6672  XYY=              5.6311
  XXY=             -0.0000  XXZ=             -9.1335  XZZ=              2.9528  YZZ=             -0.0000
  YYZ=             -0.5832  XYZ=             -0.0000
 Hexadecapole moment (field-independent basis, Debye-Ang**3):
 XXXX=           -501.1652 YYYY=           -286.5800 ZZZZ=            -55.8494 XXXY=              0.0000
 XXXZ=            -26.0679 YYYX=              0.0000 YYYZ=             -0.0000 ZZZX=             -0.9510
 ZZZY=              0.0000 XXYY=           -123.8589 XXZZ=           -117.1340 YYZZ=            -67.3221
 XXYZ=              0.0000 YYXZ=             -1.8394 ZZXY=             -0.0000
 N-N= 2.719826097733D+02 E-N=-1.212150127398D+03  KE= 2.862382868957D+02
 No NMR shielding tensors so no spin-rotation constants.
 Leave Link  601 at Tue Jan 14 14:03:13 2025, MaxMem=   104857600 cpu:               0.1 elap:               0.1
 (Enter /sw/cluster/pub/apps//g16/l9999.exe)
 1\1\GINC-N02\SP\RB3LYP\def2TZVP\C6H7N1\UNKNOWN\14-Jan-2025\0\\#P B3LYP
 /def2tzvp nosymm Density=Current\\Single-Point\\0,1\C,0,0.93537128,0.,
 0.00238281\C,0,0.21991924,1.20312775,0.00308528\C,0,-1.16770899,1.1977
 3958,0.00308528\C,0,-1.8750059,0.,0.00327083\C,0,-1.16770899,-1.197739
 58,0.00308528\C,0,0.21991924,-1.20312775,0.00308528\N,0,2.32811227,0.,
 0.06046324\H,0,0.7585211,2.14411494,0.00762686\H,0,-1.70017548,2.14104
 633,0.00211452\H,0,-2.95686736,0.,0.00254513\H,0,-1.70017548,-2.141046
 33,0.00211452\H,0,0.7585211,-2.14411494,0.00762686\H,0,2.77733747,-0.8
 3661613,-0.2766195\H,0,2.77733747,0.83661613,-0.2766195\\Version=ES64L
 -G16RevA.03\HF=-287.7184966\RMSD=8.397e-09\Dipole=0.53899,0.,-0.369162
 1\Quadrupole=3.3383686,1.9209032,-5.2592718,0.,-2.2818057,0.\PG=CS [SG
 (C2H1N1),X(C4H6)]\\@


 WE'RE IN THE POSITION OF A VISITOR FROM ANOTHER
 DIMENSION WHO COMES TO EARTH AND SEES A CHESS MATCH.
 ASSUMING HE KNOWS IT'S A GAME, HE'S GOT TWO PROBLEMS:
 FIRST, FIGURE OUT THE RULES, AND SECOND, FIGURE OUT HOW TO WIN.
 NINETY PERCENT OF SCIENCE (INCLUDING VIRTUALLY ALL OF CHEMISRY)
 IS IN THAT SECOND CATEGORY.  THEY'RE TRYING TO APPLY
 THE LAWS THAT ARE ALREADY KNOWN.

                     -- SHELDON GLASHOW, 1979
 Job cpu time:       0 days  0 hours  1 minutes 16.8 seconds.
 Elapsed time:       0 days  0 hours  1 minutes 17.0 seconds.
 File lengths (MBytes):  RWF=     42 Int=      0 D2E=      0 Chk=      5 Scr=      1
 Normal termination of Gaussian 16 at Tue Jan 14 14:03:13 2025.
