 Entering Gaussian System, Link 0=g16
 Initial command:
 /sw/cluster/pub/apps//g16/l1.exe "/data/mmaximo/27761/Gau-1917246.inp" -scrdir="/data/mmaximo/27761/"
 Entering Link 1 = /sw/cluster/pub/apps//g16/l1.exe PID=   1917247.
  
 Copyright (c) 1988,1990,1992,1993,1995,1998,2003,2009,2016,
            Gaussian, Inc.  All Rights Reserved.
  
 This is part of the Gaussian(R) 16 program.  It is based on
 the Gaussian(R) 09 system (copyright 2009, Gaussian, Inc.),
 the Gaussian(R) 03 system (copyright 2003, Gaussian, Inc.),
 the Gaussian(R) 98 system (copyright 1998, Gaussian, Inc.),
 the Gaussian(R) 94 system (copyright 1995, Gaussian, Inc.),
 the Gaussian 92(TM) system (copyright 1992, Gaussian, Inc.),
 the Gaussian 90(TM) system (copyright 1990, Gaussian, Inc.),
 the Gaussian 88(TM) system (copyright 1988, Gaussian, Inc.),
 the Gaussian 86(TM) system (copyright 1986, Carnegie Mellon
 University), and the Gaussian 82(TM) system (copyright 1983,
 Carnegie Mellon University). Gaussian is a federally registered
 trademark of Gaussian, Inc.
  
 This software contains proprietary and confidential information,
 including trade secrets, belonging to Gaussian, Inc.
  
 This software is provided under written license and may be
 used, copied, transmitted, or stored only in accord with that
 written license.
  
 The following legend is applicable only to US Government
 contracts under FAR:
  
                    RESTRICTED RIGHTS LEGEND
  
 Use, reproduction and disclosure by the US Government is
 subject to restrictions as set forth in subparagraphs (a)
 and (c) of the Commercial Computer Software - Restricted
 Rights clause in FAR 52.227-19.
  
 Gaussian, Inc.
 340 Quinnipiac St., Bldg. 40, Wallingford CT 06492
  
  
 ---------------------------------------------------------------
 Warning -- This program may not be used in any manner that
 competes with the business of Gaussian, Inc. or will provide
 assistance to any competitor of Gaussian, Inc.  The licensee
 of this program is prohibited from giving any competitor of
 Gaussian, Inc. access to this program.  By using this program,
 the user acknowledges that Gaussian, Inc. is engaged in the
 business of creating and licensing software in the field of
 computational chemistry and represents and warrants to the
 licensee that it is not a competitor of Gaussian, Inc. and that
 it will not use this program in any manner prohibited above.
 ---------------------------------------------------------------
  

 Cite this work as:
 Gaussian 16, Revision A.03,
 M. J. Frisch, G. W. Trucks, H. B. Schlegel, G. E. Scuseria, 
 M. A. Robb, J. R. Cheeseman, G. Scalmani, V. Barone, 
 G. A. Petersson, H. Nakatsuji, X. Li, M. Caricato, A. V. Marenich, 
 J. Bloino, B. G. Janesko, R. Gomperts, B. Mennucci, H. P. Hratchian, 
 J. V. Ortiz, A. F. Izmaylov, J. L. Sonnenberg, D. Williams-Young, 
 F. Ding, F. Lipparini, F. Egidi, J. Goings, B. Peng, A. Petrone, 
 T. Henderson, D. Ranasinghe, V. G. Zakrzewski, J. Gao, N. Rega, 
 G. Zheng, W. Liang, M. Hada, M. Ehara, K. Toyota, R. Fukuda, 
 J. Hasegawa, M. Ishida, T. Nakajima, Y. Honda, O. Kitao, H. Nakai, 
 T. Vreven, K. Throssell, J. A. Montgomery, Jr., J. E. Peralta, 
 F. Ogliaro, M. J. Bearpark, J. J. Heyd, E. N. Brothers, K. N. Kudin, 
 V. N. Staroverov, T. A. Keith, R. Kobayashi, J. Normand, 
 K. Raghavachari, A. P. Rendell, J. C. Burant, S. S. Iyengar, 
 J. Tomasi, M. Cossi, J. M. Millam, M. Klene, C. Adamo, R. Cammi, 
 J. W. Ochterski, R. L. Martin, K. Morokuma, O. Farkas, 
 J. B. Foresman, and D. J. Fox, Gaussian, Inc., Wallingford CT, 2016.
 
 ******************************************
 Gaussian 16:  ES64L-G16RevA.03 25-Dec-2016
                14-Jan-2025 
 ******************************************
 %chk=C6H5NH+.chk
 ----------------------------------------
 #P B3LYP/def2tzvp nosymm Density=Current
 ----------------------------------------
 1/30=1,38=1,172=1/1;
 2/12=2,15=1,17=6,18=5,40=1/2;
 3/5=44,7=101,11=2,25=1,30=1,74=-5/1,2,3;
 4//1;
 5/5=2,38=5/2;
 6/7=2,8=2,9=2,10=2,22=-1,28=1/1;
 99/5=1,9=1/99;
 Leave Link    1 at Tue Jan 14 14:13:23 2025, MaxMem=           0 cpu:               0.0 elap:               0.0
 (Enter /sw/cluster/pub/apps//g16/l101.exe)
 ------------
 Single-Point
 ------------
 Symbolic Z-matrix:
 Charge =  1 Multiplicity = 1
 C                     0.01278  -1.76304   0. 
 C                     1.24999  -1.09093   0. 
 C                     1.25985   0.27355   0. 
 C                     0.        1.01238   0. 
 C                    -1.25712   0.26871   0. 
 C                    -1.23371  -1.09154   0. 
 H                     0.01201  -2.84768   0. 
 H                     2.17036  -1.65872   0. 
 H                     2.17195   0.85683   0. 
 N                     0.08832   2.29682   0. 
 H                    -2.18817   0.82323   0. 
 H                    -2.14891  -1.66796   0. 
 H                    -0.8262    2.76177   0. 
 
 ITRead=  0  0  0  0  0  0  0  0  0  0  0  0  0
 MicOpt= -1 -1 -1 -1 -1 -1 -1 -1 -1 -1 -1 -1 -1
 NAtoms=     13 NQM=       13 NQMF=       0 NMMI=      0 NMMIF=      0
                NMic=       0 NMicF=      0.
                    Isotopes and Nuclear Properties:
 (Nuclear quadrupole moments (NQMom) in fm**2, nuclear magnetic moments (NMagM)
  in nuclear magnetons)

  Atom         1           2           3           4           5           6           7           8           9          10
 IAtWgt=          12          12          12          12          12          12           1           1           1          14
 AtmWgt=  12.0000000  12.0000000  12.0000000  12.0000000  12.0000000  12.0000000   1.0078250   1.0078250   1.0078250  14.0030740
 NucSpn=           0           0           0           0           0           0           1           1           1           2
 AtZEff=  -0.0000000  -0.0000000  -0.0000000  -0.0000000  -0.0000000  -0.0000000  -0.0000000  -0.0000000  -0.0000000  -0.0000000
 NQMom=    0.0000000   0.0000000   0.0000000   0.0000000   0.0000000   0.0000000   0.0000000   0.0000000   0.0000000   2.0440000
 NMagM=    0.0000000   0.0000000   0.0000000   0.0000000   0.0000000   0.0000000   2.7928460   2.7928460   2.7928460   0.4037610
 AtZNuc=   6.0000000   6.0000000   6.0000000   6.0000000   6.0000000   6.0000000   1.0000000   1.0000000   1.0000000   7.0000000

  Atom        11          12          13
 IAtWgt=           1           1           1
 AtmWgt=   1.0078250   1.0078250   1.0078250
 NucSpn=           1           1           1
 AtZEff=  -0.0000000  -0.0000000  -0.0000000
 NQMom=    0.0000000   0.0000000   0.0000000
 NMagM=    2.7928460   2.7928460   2.7928460
 AtZNuc=   1.0000000   1.0000000   1.0000000
 Leave Link  101 at Tue Jan 14 14:13:23 2025, MaxMem=   104857600 cpu:               0.0 elap:               0.0
 (Enter /sw/cluster/pub/apps//g16/l202.exe)
                          Input orientation:                          
 ---------------------------------------------------------------------
 Center     Atomic      Atomic             Coordinates (Angstroms)
 Number     Number       Type             X           Y           Z
 ---------------------------------------------------------------------
      1          6           0        0.012784   -1.763044    0.000000
      2          6           0        1.249991   -1.090930    0.000000
      3          6           0        1.259848    0.273550    0.000000
      4          6           0        0.000000    1.012384    0.000000
      5          6           0       -1.257117    0.268710    0.000000
      6          6           0       -1.233715   -1.091541    0.000000
      7          1           0        0.012007   -2.847676    0.000000
      8          1           0        2.170361   -1.658720    0.000000
      9          1           0        2.171948    0.856827    0.000000
     10          7           0        0.088316    2.296822    0.000000
     11          1           0       -2.188169    0.823231    0.000000
     12          1           0       -2.148909   -1.667964    0.000000
     13          1           0       -0.826201    2.761775    0.000000
 ---------------------------------------------------------------------
                    Distance matrix (angstroms):
                    1          2          3          4          5
     1  C    0.000000
     2  C    1.407984   0.000000
     3  C    2.388071   1.364516   0.000000
     4  C    2.775458   2.446714   1.460511   0.000000
     5  C    2.395970   2.852054   2.516969   1.460614   0.000000
     6  C    1.415866   2.483706   2.842768   2.438966   1.360452
     7  H    1.084632   2.149130   3.361422   3.860079   3.364897
     8  H    2.160097   1.081418   2.136048   3.441695   3.932250
     9  H    3.394954   2.154939   1.082654   2.177512   3.479133
    10  N    4.060569   3.581390   2.337972   1.287470   2.433810
    11  H    3.396029   3.935093   3.491556   2.196329   1.083675
    12  H    2.163783   3.447534   3.922894   3.435415   2.132135
    13  H    4.601943   4.376518   3.246977   1.934677   2.530032
                    6          7          8          9         10
     6  C    0.000000
     7  H    2.153098   0.000000
     8  H    3.451003   2.464164   0.000000
     9  H    3.923605   4.288203   2.515547   0.000000
    10  N    3.637138   5.145064   4.470036   2.532806   0.000000
    11  H    2.139471   4.279758   5.015662   4.360246   2.711799
    12  H    1.081593   2.461967   4.319280   5.004435   4.552439
    13  H    3.874805   5.671731   5.340427   3.552144   1.025926
                   11         12         13
    11  H    0.000000
    12  H    2.491504   0.000000
    13  H    2.369157   4.623001   0.000000
 Symmetry turned off by external request.
 Stoichiometry    C6H6N(1+)
 Framework group  CS[SG(C6H6N)]
 Deg. of freedom    23
 Full point group                 CS      NOp   2
 Rotational constants (GHZ):           5.3311051           2.8610434           1.8618465
 Leave Link  202 at Tue Jan 14 14:13:23 2025, MaxMem=   104857600 cpu:               0.0 elap:               0.0
 (Enter /sw/cluster/pub/apps//g16/l301.exe)
 Standard basis: def2TZVP (5D, 7F)
 Ernie: Thresh=  0.10000D-02 Tol=  0.10000D-05 Strict=F.
   253 basis functions,   405 primitive gaussians,   288 cartesian basis functions
    24 alpha electrons       24 beta electrons
       nuclear repulsion energy       261.5907482829 Hartrees.
 IExCor=  402 DFT=T Ex+Corr=B3LYP ExCW=0 ScaHFX=  0.200000
 ScaDFX=  0.800000  0.720000  1.000000  0.810000 ScalE2=  1.000000  1.000000
 IRadAn=      5 IRanWt=     -1 IRanGd=            0 ICorTp=0 IEmpDi=  4
 NAtoms=   13 NActive=   13 NUniq=   13 SFac= 1.00D+00 NAtFMM=   60 NAOKFM=F Big=F
 Integral buffers will be    131072 words long.
 Raffenetti 2 integral format.
 Two-electron integral symmetry is turned off.
 Leave Link  301 at Tue Jan 14 14:13:23 2025, MaxMem=   104857600 cpu:               0.0 elap:               0.0
 (Enter /sw/cluster/pub/apps//g16/l302.exe)
 NPDir=0 NMtPBC=     1 NCelOv=     1 NCel=       1 NClECP=     1 NCelD=      1
         NCelK=      1 NCelE2=     1 NClLst=     1 CellRange=     0.0.
 One-electron integrals computed using PRISM.
   1 Symmetry operations used in ECPInt.
 ECPInt:  NShTT=    5151 NPrTT=   15748 LenC2=    5092 LenP2D=   12853.
 LDataN:  DoStor=T MaxTD1= 6 Len=  172
 NBasis=   253 RedAO= T EigKep=  1.15D-05  NBF=   253
 NBsUse=   253 1.00D-06 EigRej= -1.00D+00 NBFU=   253
 Precomputing XC quadrature grid using
 IXCGrd= 4 IRadAn=           5 IRanWt=          -1 IRanGd=           0 AccXCQ= 0.00D+00.
 Generated NRdTot=       0 NPtTot=           0 NUsed=           0 NTot=          32
 NSgBfM=   287   287   287   287   287 MxSgAt=    13 MxSgA2=    13.
 Leave Link  302 at Tue Jan 14 14:13:23 2025, MaxMem=   104857600 cpu:               0.1 elap:               0.1
 (Enter /sw/cluster/pub/apps//g16/l303.exe)
 DipDrv:  MaxL=1.
 Leave Link  303 at Tue Jan 14 14:13:23 2025, MaxMem=   104857600 cpu:               0.0 elap:               0.0
 (Enter /sw/cluster/pub/apps//g16/l401.exe)
 ExpMin= 9.52D-02 ExpMax= 1.97D+04 ExpMxC= 6.73D+02 IAcc=3 IRadAn=         5 AccDes= 0.00D+00
 Harris functional with IExCor=  402 and IRadAn=       5 diagonalized for initial guess.
 HarFok:  IExCor=  402 AccDes= 0.00D+00 IRadAn=         5 IDoV= 1 UseB2=F ITyADJ=14
 ICtDFT=  3500011 ScaDFX=  1.000000  1.000000  1.000000  1.000000
 FoFCou: FMM=F IPFlag=           0 FMFlag=      100000 FMFlg1=           0
         NFxFlg=           0 DoJE=T BraDBF=F KetDBF=T FulRan=T
         wScrn=  0.000000 ICntrl=       500 IOpCl=  0 I1Cent=   200000004 NGrid=           0
         NMat0=    1 NMatS0=      1 NMatT0=    0 NMatD0=    1 NMtDS0=    0 NMtDT0=    0
 Symmetry not used in FoFCou.
 Harris En= -286.807525633304    
 JPrj=0 DoOrth=F DoCkMO=F.
 Leave Link  401 at Tue Jan 14 14:13:25 2025, MaxMem=   104857600 cpu:               1.9 elap:               1.9
 (Enter /sw/cluster/pub/apps//g16/l502.exe)
 Two-electron integral symmetry not used.
 Closed shell SCF:
 Using DIIS extrapolation, IDIIS=  1040.
 NGot=   104857600 LenX=   104687995 LenY=   104604610
 Requested convergence on RMS density matrix=1.00D-08 within 128 cycles.
 Requested convergence on MAX density matrix=1.00D-06.
 Requested convergence on             energy=1.00D-06.
 No special actions if energy rises.
 Fock matrices will be formed incrementally for  20 cycles.
 Integral accuracy reduced to 1.0D-05 until final iterations.

 Cycle   1  Pass 0  IDiag  1:
 FoFJK:  IHMeth= 1 ICntrl=       0 DoSepK=F KAlg= 0 I1Cent=           0 FoldK=F
 IRaf= 970000000 NMat=       1 IRICut=       1 DoRegI=T DoRafI=F ISym2E= 0 IDoP0=0 IntGTp=1.
 FoFCou: FMM=F IPFlag=           0 FMFlag=      100000 FMFlg1=           0
         NFxFlg=           0 DoJE=F BraDBF=F KetDBF=F FulRan=T
         wScrn=  0.000000 ICntrl=         0 IOpCl=  0 I1Cent=           0 NGrid=           0
         NMat0=    1 NMatS0=      1 NMatT0=    0 NMatD0=    1 NMtDS0=    0 NMtDT0=    0
 Symmetry not used in FoFCou.
 E= -286.683487650449    
 DIIS: error= 2.20D-02 at cycle   1 NSaved=   1.
 NSaved= 1 IEnMin= 1 EnMin= -286.683487650449     IErMin= 1 ErrMin= 2.20D-02
 ErrMax= 2.20D-02  0.00D+00 EMaxC= 1.00D-01 BMatC= 1.05D-01 BMatP= 1.05D-01
 IDIUse=3 WtCom= 7.80D-01 WtEn= 2.20D-01
 Coeff-Com:  0.100D+01
 Coeff-En:   0.100D+01
 Coeff:      0.100D+01
 Gap=     0.129 Goal=   None    Shift=    0.000
 GapD=    0.129 DampG=1.000 DampE=0.500 DampFc=0.5000 IDamp=-1.
 Damping current iteration by 5.00D-01
 RMSDP=3.02D-03 MaxDP=1.37D-01              OVMax= 1.38D-01

 Cycle   2  Pass 0  IDiag  1:
 RMSU=  1.50D-03    CP:  9.79D-01
 E= -286.726440291557     Delta-E=       -0.042952641108 Rises=F Damp=T
 DIIS: error= 4.44D-03 at cycle   2 NSaved=   2.
 NSaved= 2 IEnMin= 2 EnMin= -286.726440291557     IErMin= 2 ErrMin= 4.44D-03
 ErrMax= 4.44D-03  0.00D+00 EMaxC= 1.00D-01 BMatC= 9.17D-03 BMatP= 1.05D-01
 IDIUse=3 WtCom= 9.56D-01 WtEn= 4.44D-02
 Coeff-Com: -0.696D-01 0.107D+01
 Coeff-En:   0.000D+00 0.100D+01
 Coeff:     -0.665D-01 0.107D+01
 Gap=     0.125 Goal=   None    Shift=    0.000
 RMSDP=8.65D-04 MaxDP=2.83D-02 DE=-4.30D-02 OVMax= 1.06D-01

 Cycle   3  Pass 0  IDiag  1:
 RMSU=  8.26D-04    CP:  9.66D-01  1.15D+00
 E= -286.766416313524     Delta-E=       -0.039976021967 Rises=F Damp=F
 DIIS: error= 7.71D-03 at cycle   3 NSaved=   3.
 NSaved= 3 IEnMin= 3 EnMin= -286.766416313524     IErMin= 2 ErrMin= 4.44D-03
 ErrMax= 7.71D-03  0.00D+00 EMaxC= 1.00D-01 BMatC= 7.00D-03 BMatP= 9.17D-03
 IDIUse=3 WtCom= 9.23D-01 WtEn= 7.71D-02
 Coeff-Com: -0.120D+00 0.535D+00 0.585D+00
 Coeff-En:   0.000D+00 0.000D+00 0.100D+01
 Coeff:     -0.111D+00 0.494D+00 0.617D+00
 Gap=     0.128 Goal=   None    Shift=    0.000
 RMSDP=3.45D-04 MaxDP=1.44D-02 DE=-4.00D-02 OVMax= 5.04D-02

 Cycle   4  Pass 0  IDiag  1:
 RMSU=  2.55D-04    CP:  9.68D-01  1.25D+00  7.87D-01
 E= -286.770159186143     Delta-E=       -0.003742872619 Rises=F Damp=F
 DIIS: error= 4.99D-03 at cycle   4 NSaved=   4.
 NSaved= 4 IEnMin= 4 EnMin= -286.770159186143     IErMin= 2 ErrMin= 4.44D-03
 ErrMax= 4.99D-03  0.00D+00 EMaxC= 1.00D-01 BMatC= 2.79D-03 BMatP= 7.00D-03
 IDIUse=3 WtCom= 9.50D-01 WtEn= 4.99D-02
 Coeff-Com: -0.652D-01 0.201D+00 0.424D+00 0.440D+00
 Coeff-En:   0.000D+00 0.000D+00 0.324D+00 0.676D+00
 Coeff:     -0.619D-01 0.191D+00 0.419D+00 0.452D+00
 Gap=     0.133 Goal=   None    Shift=    0.000
 RMSDP=1.78D-04 MaxDP=9.00D-03 DE=-3.74D-03 OVMax= 2.23D-02

 Cycle   5  Pass 0  IDiag  1:
 RMSU=  8.47D-05    CP:  9.66D-01  1.21D+00  8.78D-01  5.34D-01
 E= -286.772830039739     Delta-E=       -0.002670853596 Rises=F Damp=F
 DIIS: error= 1.21D-03 at cycle   5 NSaved=   5.
 NSaved= 5 IEnMin= 5 EnMin= -286.772830039739     IErMin= 5 ErrMin= 1.21D-03
 ErrMax= 1.21D-03  0.00D+00 EMaxC= 1.00D-01 BMatC= 1.24D-04 BMatP= 2.79D-03
 IDIUse=3 WtCom= 9.88D-01 WtEn= 1.21D-02
 Coeff-Com: -0.240D-01 0.593D-01 0.177D+00 0.252D+00 0.536D+00
 Coeff-En:   0.000D+00 0.000D+00 0.000D+00 0.000D+00 0.100D+01
 Coeff:     -0.237D-01 0.585D-01 0.174D+00 0.249D+00 0.542D+00
 Gap=     0.126 Goal=   None    Shift=    0.000
 RMSDP=5.43D-05 MaxDP=3.24D-03 DE=-2.67D-03 OVMax= 7.07D-03

 Cycle   6  Pass 0  IDiag  1:
 RMSU=  2.45D-05    CP:  9.66D-01  1.23D+00  8.59D-01  5.48D-01  6.07D-01
 E= -286.772917518571     Delta-E=       -0.000087478832 Rises=F Damp=F
 DIIS: error= 7.29D-04 at cycle   6 NSaved=   6.
 NSaved= 6 IEnMin= 6 EnMin= -286.772917518571     IErMin= 6 ErrMin= 7.29D-04
 ErrMax= 7.29D-04  0.00D+00 EMaxC= 1.00D-01 BMatC= 2.71D-05 BMatP= 1.24D-04
 IDIUse=3 WtCom= 9.93D-01 WtEn= 7.29D-03
 Coeff-Com: -0.961D-02 0.199D-01 0.789D-01 0.129D+00 0.369D+00 0.412D+00
 Coeff-En:   0.000D+00 0.000D+00 0.000D+00 0.000D+00 0.195D+00 0.805D+00
 Coeff:     -0.954D-02 0.198D-01 0.783D-01 0.128D+00 0.368D+00 0.415D+00
 Gap=     0.125 Goal=   None    Shift=    0.000
 RMSDP=2.46D-05 MaxDP=1.43D-03 DE=-8.75D-05 OVMax= 4.12D-03

 Cycle   7  Pass 0  IDiag  1:
 RMSU=  1.08D-05    CP:  9.66D-01  1.22D+00  8.71D-01  5.54D-01  7.34D-01
                    CP:  4.68D-01
 E= -286.772943764179     Delta-E=       -0.000026245608 Rises=F Damp=F
 DIIS: error= 2.23D-04 at cycle   7 NSaved=   7.
 NSaved= 7 IEnMin= 7 EnMin= -286.772943764179     IErMin= 7 ErrMin= 2.23D-04
 ErrMax= 2.23D-04  0.00D+00 EMaxC= 1.00D-01 BMatC= 2.51D-06 BMatP= 2.71D-05
 IDIUse=3 WtCom= 9.98D-01 WtEn= 2.23D-03
 Coeff-Com: -0.375D-02 0.703D-02 0.325D-01 0.569D-01 0.178D+00 0.279D+00
 Coeff-Com:  0.450D+00
 Coeff-En:   0.000D+00 0.000D+00 0.000D+00 0.000D+00 0.000D+00 0.932D-01
 Coeff-En:   0.907D+00
 Coeff:     -0.374D-02 0.701D-02 0.325D-01 0.568D-01 0.178D+00 0.278D+00
 Coeff:      0.451D+00
 Gap=     0.125 Goal=   None    Shift=    0.000
 RMSDP=4.69D-06 MaxDP=2.18D-04 DE=-2.62D-05 OVMax= 1.17D-03

 Initial convergence to 1.0D-05 achieved.  Increase integral accuracy.
 Cycle   8  Pass 1  IDiag  1:
 E= -286.772946110811     Delta-E=       -0.000002346632 Rises=F Damp=F
 DIIS: error= 4.59D-05 at cycle   1 NSaved=   1.
 NSaved= 1 IEnMin= 1 EnMin= -286.772946110811     IErMin= 1 ErrMin= 4.59D-05
 ErrMax= 4.59D-05  0.00D+00 EMaxC= 1.00D-01 BMatC= 3.97D-07 BMatP= 3.97D-07
 IDIUse=1 WtCom= 1.00D+00 WtEn= 0.00D+00
 Coeff-Com:  0.100D+01
 Coeff:      0.100D+01
 Gap=     0.125 Goal=   None    Shift=    0.000
 RMSDP=4.69D-06 MaxDP=2.18D-04 DE=-2.35D-06 OVMax= 3.51D-04

 Cycle   9  Pass 1  IDiag  1:
 RMSU=  4.68D-05    CP:  1.00D+00
 E= -286.772946064533     Delta-E=        0.000000046278 Rises=F Damp=F
 DIIS: error= 4.51D-05 at cycle   2 NSaved=   2.
 NSaved= 2 IEnMin= 1 EnMin= -286.772946110811     IErMin= 2 ErrMin= 4.51D-05
 ErrMax= 4.51D-05  0.00D+00 EMaxC= 1.00D-01 BMatC= 2.12D-07 BMatP= 3.97D-07
 IDIUse=1 WtCom= 1.00D+00 WtEn= 0.00D+00
 Coeff-Com:  0.391D+00 0.609D+00
 Coeff:      0.391D+00 0.609D+00
 Gap=     0.125 Goal=   None    Shift=    0.000
 RMSDP=2.07D-06 MaxDP=1.05D-04 DE= 4.63D-08 OVMax= 4.85D-04

 Cycle  10  Pass 1  IDiag  1:
 RMSU=  2.05D-06    CP:  1.00D+00  1.01D+00
 E= -286.772946104083     Delta-E=       -0.000000039550 Rises=F Damp=F
 DIIS: error= 5.33D-05 at cycle   3 NSaved=   3.
 NSaved= 3 IEnMin= 1 EnMin= -286.772946110811     IErMin= 2 ErrMin= 4.51D-05
 ErrMax= 5.33D-05  0.00D+00 EMaxC= 1.00D-01 BMatC= 1.63D-07 BMatP= 2.12D-07
 IDIUse=1 WtCom= 1.00D+00 WtEn= 0.00D+00
 Coeff-Com:  0.447D-01 0.458D+00 0.498D+00
 Coeff:      0.447D-01 0.458D+00 0.498D+00
 Gap=     0.125 Goal=   None    Shift=    0.000
 RMSDP=1.76D-06 MaxDP=9.33D-05 DE=-3.95D-08 OVMax= 3.20D-04

 Cycle  11  Pass 1  IDiag  1:
 RMSU=  1.03D-06    CP:  1.00D+00  1.02D+00  4.11D-01
 E= -286.772946269484     Delta-E=       -0.000000165401 Rises=F Damp=F
 DIIS: error= 1.80D-05 at cycle   4 NSaved=   4.
 NSaved= 4 IEnMin= 4 EnMin= -286.772946269484     IErMin= 4 ErrMin= 1.80D-05
 ErrMax= 1.80D-05  0.00D+00 EMaxC= 1.00D-01 BMatC= 2.04D-08 BMatP= 1.63D-07
 IDIUse=1 WtCom= 1.00D+00 WtEn= 0.00D+00
 Coeff-Com:  0.116D-02 0.272D+00 0.349D+00 0.378D+00
 Coeff:      0.116D-02 0.272D+00 0.349D+00 0.378D+00
 Gap=     0.125 Goal=   None    Shift=    0.000
 RMSDP=6.11D-07 MaxDP=3.80D-05 DE=-1.65D-07 OVMax= 8.49D-05

 Cycle  12  Pass 1  IDiag  1:
 RMSU=  1.56D-07    CP:  1.00D+00  1.02D+00  5.05D-01  4.83D-01
 E= -286.772946290435     Delta-E=       -0.000000020951 Rises=F Damp=F
 DIIS: error= 2.38D-06 at cycle   5 NSaved=   5.
 NSaved= 5 IEnMin= 5 EnMin= -286.772946290435     IErMin= 5 ErrMin= 2.38D-06
 ErrMax= 2.38D-06  0.00D+00 EMaxC= 1.00D-01 BMatC= 6.04D-10 BMatP= 2.04D-08
 IDIUse=1 WtCom= 1.00D+00 WtEn= 0.00D+00
 Coeff-Com: -0.110D-02 0.155D+00 0.204D+00 0.239D+00 0.403D+00
 Coeff:     -0.110D-02 0.155D+00 0.204D+00 0.239D+00 0.403D+00
 Gap=     0.125 Goal=   None    Shift=    0.000
 RMSDP=7.32D-08 MaxDP=2.86D-06 DE=-2.10D-08 OVMax= 1.01D-05

 Cycle  13  Pass 1  IDiag  1:
 RMSU=  5.30D-08    CP:  1.00D+00  1.02D+00  5.06D-01  5.13D-01  7.89D-01
 E= -286.772946290986     Delta-E=       -0.000000000551 Rises=F Damp=F
 DIIS: error= 4.15D-07 at cycle   6 NSaved=   6.
 NSaved= 6 IEnMin= 6 EnMin= -286.772946290986     IErMin= 6 ErrMin= 4.15D-07
 ErrMax= 4.15D-07  0.00D+00 EMaxC= 1.00D-01 BMatC= 3.25D-11 BMatP= 6.04D-10
 IDIUse=1 WtCom= 1.00D+00 WtEn= 0.00D+00
 Coeff-Com: -0.751D-03 0.627D-01 0.833D-01 0.100D+00 0.239D+00 0.516D+00
 Coeff:     -0.751D-03 0.627D-01 0.833D-01 0.100D+00 0.239D+00 0.516D+00
 Gap=     0.125 Goal=   None    Shift=    0.000
 RMSDP=1.72D-08 MaxDP=6.90D-07 DE=-5.51D-10 OVMax= 1.82D-06

 Cycle  14  Pass 1  IDiag  1:
 RMSU=  1.16D-08    CP:  1.00D+00  1.02D+00  5.07D-01  5.07D-01  8.16D-01
                    CP:  8.18D-01
 E= -286.772946291016     Delta-E=       -0.000000000030 Rises=F Damp=F
 DIIS: error= 5.26D-08 at cycle   7 NSaved=   7.
 NSaved= 7 IEnMin= 7 EnMin= -286.772946291016     IErMin= 7 ErrMin= 5.26D-08
 ErrMax= 5.26D-08  0.00D+00 EMaxC= 1.00D-01 BMatC= 6.72D-13 BMatP= 3.25D-11
 IDIUse=1 WtCom= 1.00D+00 WtEn= 0.00D+00
 Coeff-Com: -0.230D-03 0.165D-01 0.218D-01 0.275D-01 0.759D-01 0.200D+00
 Coeff-Com:  0.658D+00
 Coeff:     -0.230D-03 0.165D-01 0.218D-01 0.275D-01 0.759D-01 0.200D+00
 Coeff:      0.658D+00
 Gap=     0.125 Goal=   None    Shift=    0.000
 RMSDP=5.88D-09 MaxDP=3.11D-07 DE=-3.04D-11 OVMax= 5.57D-07

 SCF Done:  E(RB3LYP) =  -286.772946291     A.U. after   14 cycles
            NFock= 14  Conv=0.59D-08     -V/T= 2.0051
 KE= 2.853268158696D+02 PE=-1.178748648925D+03 EE= 3.450581384818D+02
 Leave Link  502 at Tue Jan 14 14:14:46 2025, MaxMem=   104857600 cpu:              80.8 elap:              81.2
 (Enter /sw/cluster/pub/apps//g16/l601.exe)
 Copying SCF densities to generalized density rwf, IOpCl= 0 IROHF=0.

 **********************************************************************

            Population analysis using the SCF density.

 **********************************************************************

 Alpha  occ. eigenvalues --  -14.55555 -10.44571 -10.43923 -10.42187 -10.42057
 Alpha  occ. eigenvalues --  -10.40049 -10.39746  -1.14712  -1.06741  -0.98414
 Alpha  occ. eigenvalues --   -0.93678  -0.83723  -0.81255  -0.74366  -0.71325
 Alpha  occ. eigenvalues --   -0.68102  -0.65331  -0.64792  -0.61400  -0.59182
 Alpha  occ. eigenvalues --   -0.57373  -0.53442  -0.49504  -0.48867
 Alpha virt. eigenvalues --   -0.36336  -0.22605  -0.20406  -0.12415  -0.11131
 Alpha virt. eigenvalues --   -0.08146  -0.07523  -0.07444  -0.06230  -0.04442
 Alpha virt. eigenvalues --   -0.03335   0.00687   0.00996   0.01637   0.03574
 Alpha virt. eigenvalues --    0.04212   0.04753   0.06163   0.06543   0.07373
 Alpha virt. eigenvalues --    0.10361   0.12377   0.12979   0.14013   0.14182
 Alpha virt. eigenvalues --    0.14496   0.17172   0.18526   0.21136   0.21949
 Alpha virt. eigenvalues --    0.22775   0.23091   0.24517   0.25115   0.26949
 Alpha virt. eigenvalues --    0.27195   0.28445   0.30342   0.30631   0.31030
 Alpha virt. eigenvalues --    0.32295   0.33641   0.38918   0.40472   0.42380
 Alpha virt. eigenvalues --    0.42819   0.45115   0.46450   0.48266   0.50517
 Alpha virt. eigenvalues --    0.51361   0.55109   0.55874   0.56955   0.58019
 Alpha virt. eigenvalues --    0.60783   0.64750   0.66203   0.67788   0.69695
 Alpha virt. eigenvalues --    0.78412   0.78454   0.80030   0.82069   0.84828
 Alpha virt. eigenvalues --    0.87062   0.87241   0.91313   0.95875   0.96802
 Alpha virt. eigenvalues --    0.99617   0.99859   1.00508   1.03513   1.05449
 Alpha virt. eigenvalues --    1.07360   1.08510   1.14197   1.15670   1.15722
 Alpha virt. eigenvalues --    1.20970   1.25293   1.25937   1.26405   1.26569
 Alpha virt. eigenvalues --    1.29066   1.31766   1.34068   1.35403   1.38857
 Alpha virt. eigenvalues --    1.40790   1.42100   1.43087   1.45655   1.46592
 Alpha virt. eigenvalues --    1.50116   1.53283   1.54993   1.55395   1.61498
 Alpha virt. eigenvalues --    1.64857   1.68313   1.72096   1.75142   1.77928
 Alpha virt. eigenvalues --    1.79339   1.83808   1.84132   1.86249   1.88251
 Alpha virt. eigenvalues --    1.91170   1.93345   1.95803   1.99801   2.01715
 Alpha virt. eigenvalues --    2.02409   2.06968   2.11714   2.18038   2.24512
 Alpha virt. eigenvalues --    2.27939   2.29164   2.31806   2.34705   2.35124
 Alpha virt. eigenvalues --    2.36488   2.38339   2.41898   2.43842   2.44641
 Alpha virt. eigenvalues --    2.45478   2.46065   2.47770   2.50315   2.52040
 Alpha virt. eigenvalues --    2.52513   2.56060   2.59428   2.60040   2.61880
 Alpha virt. eigenvalues --    2.63822   2.65151   2.68335   2.68471   2.74843
 Alpha virt. eigenvalues --    2.76684   2.81643   2.84338   2.87422   2.87818
 Alpha virt. eigenvalues --    2.88676   2.89531   2.90003   2.93766   2.95653
 Alpha virt. eigenvalues --    2.97135   2.98141   2.99100   3.02239   3.03383
 Alpha virt. eigenvalues --    3.07419   3.08998   3.09947   3.12244   3.13264
 Alpha virt. eigenvalues --    3.15537   3.16597   3.20128   3.24384   3.24445
 Alpha virt. eigenvalues --    3.25436   3.25612   3.27527   3.33741   3.36209
 Alpha virt. eigenvalues --    3.42462   3.46439   3.48110   3.48180   3.53523
 Alpha virt. eigenvalues --    3.58136   3.71216   3.73270   3.73380   3.75956
 Alpha virt. eigenvalues --    3.76965   3.78962   3.80031   3.80379   3.90574
 Alpha virt. eigenvalues --    3.92678   3.96655   3.97941   3.99001   4.00751
 Alpha virt. eigenvalues --    4.02028   4.10261   4.18212   4.18936   4.34932
 Alpha virt. eigenvalues --    4.36596   4.37939   4.42344   4.46678   4.53005
 Alpha virt. eigenvalues --    4.53650   4.57839   4.62759   4.63490   4.70636
 Alpha virt. eigenvalues --    4.75742   4.85925   4.91283   5.00540   5.02922
 Alpha virt. eigenvalues --    5.05230   5.12090   5.25983   5.32673   5.39360
 Alpha virt. eigenvalues --    5.49048   5.76124  21.85518  22.23724  22.30724
 Alpha virt. eigenvalues --   22.44375  22.62214  22.96879  31.78420
          Condensed to atoms (all electrons):
               1          2          3          4          5          6
     1  C    4.780526   0.454863  -0.037692  -0.013525  -0.022507   0.441951
     2  C    0.454863   4.834685   0.507989  -0.033623  -0.004969  -0.029217
     3  C   -0.037692   0.507989   4.932853   0.379559  -0.112378   0.010917
     4  C   -0.013525  -0.033623   0.379559   4.721845   0.382330  -0.018382
     5  C   -0.022507  -0.004969  -0.112378   0.382330   5.141754   0.381245
     6  C    0.441951  -0.029217   0.010917  -0.018382   0.381245   4.940748
     7  H    0.409665  -0.031902   0.005078  -0.001266   0.007512  -0.033767
     8  H   -0.032763   0.414839  -0.025594   0.005357  -0.001753   0.005277
     9  H    0.006160  -0.027347   0.401651  -0.026315   0.008103  -0.002923
    10  N   -0.001191   0.001691  -0.059865   0.595777  -0.076144   0.014483
    11  H    0.004467  -0.000946   0.004311  -0.033780   0.398284  -0.012146
    12  H   -0.029681   0.004040  -0.001032   0.003205  -0.013660   0.402142
    13  H   -0.000194  -0.001360   0.017915  -0.061411  -0.021445   0.006026
               7          8          9         10         11         12
     1  C    0.409665  -0.032763   0.006160  -0.001191   0.004467  -0.029681
     2  C   -0.031902   0.414839  -0.027347   0.001691  -0.000946   0.004040
     3  C    0.005078  -0.025594   0.401651  -0.059865   0.004311  -0.001032
     4  C   -0.001266   0.005357  -0.026315   0.595777  -0.033780   0.003205
     5  C    0.007512  -0.001753   0.008103  -0.076144   0.398284  -0.013660
     6  C   -0.033767   0.005277  -0.002923   0.014483  -0.012146   0.402142
     7  H    0.446338  -0.003391  -0.000026  -0.000002  -0.000069  -0.003013
     8  H   -0.003391   0.448151  -0.004002  -0.000068   0.000023  -0.000078
     9  H   -0.000026  -0.004002   0.432058   0.005787  -0.000071   0.000030
    10  N   -0.000002  -0.000068   0.005787   6.287502  -0.000676  -0.000190
    11  H   -0.000069   0.000023  -0.000071  -0.000676   0.446840  -0.003467
    12  H   -0.003013  -0.000078   0.000030  -0.000190  -0.003467   0.447986
    13  H   -0.000004   0.000016  -0.000583   0.335941   0.003134  -0.000047
              13
     1  C   -0.000194
     2  C   -0.001360
     3  C    0.017915
     4  C   -0.061411
     5  C   -0.021445
     6  C    0.006026
     7  H   -0.000004
     8  H    0.000016
     9  H   -0.000583
    10  N    0.335941
    11  H    0.003134
    12  H   -0.000047
    13  H    0.468120
 Mulliken charges:
               1
     1  C    0.039922
     2  C   -0.088740
     3  C   -0.023712
     4  C    0.100229
     5  C   -0.066370
     6  C   -0.106354
     7  H    0.204849
     8  H    0.193988
     9  H    0.207480
    10  N   -0.103044
    11  H    0.194095
    12  H    0.193765
    13  H    0.253891
 Sum of Mulliken charges =   1.00000
 Mulliken charges with hydrogens summed into heavy atoms:
               1
     1  C    0.244771
     2  C    0.105248
     3  C    0.183769
     4  C    0.100229
     5  C    0.127725
     6  C    0.087412
    10  N    0.150847
 Electronic spatial extent (au):  <R**2>=            625.7318
 Charge=              1.0000 electrons
 Dipole moment (field-independent basis, Debye):
    X=             -1.2927    Y=             -1.6517    Z=             -0.0000  Tot=              2.0974
 Quadrupole moment (field-independent basis, Debye-Ang):
   XX=            -25.5878   YY=            -23.3558   ZZ=            -40.1907
   XY=             -4.4627   XZ=              0.0000   YZ=              0.0000
 Traceless Quadrupole moment (field-independent basis, Debye-Ang):
   XX=              4.1236   YY=              6.3556   ZZ=            -10.4793
   XY=             -4.4627   XZ=              0.0000   YZ=              0.0000
 Octapole moment (field-independent basis, Debye-Ang**2):
  XXX=             -0.7224  YYY=            -11.1606  ZZZ=             -0.0000  XYY=            -13.4678
  XXY=             -1.2790  XXZ=             -0.0000  XZZ=             -0.1512  YZZ=              2.1789
  YYZ=              0.0000  XYZ=             -0.0000
 Hexadecapole moment (field-independent basis, Debye-Ang**3):
 XXXX=           -230.1002 YYYY=           -388.0590 ZZZZ=            -41.9313 XXXY=             -2.4662
 XXXZ=              0.0000 YYYX=            -38.5577 YYYZ=              0.0000 ZZZX=              0.0000
 ZZZY=              0.0000 XXYY=           -102.4193 XXZZ=            -60.5015 YYZZ=            -89.3653
 XXYZ=              0.0000 YYXZ=              0.0000 ZZXY=             -0.0924
 N-N= 2.615907482829D+02 E-N=-1.178748660401D+03  KE= 2.853268158696D+02
 No NMR shielding tensors so no spin-rotation constants.
 Leave Link  601 at Tue Jan 14 14:14:46 2025, MaxMem=   104857600 cpu:               0.1 elap:               0.1
 (Enter /sw/cluster/pub/apps//g16/l9999.exe)
 1\1\GINC-N02\SP\RB3LYP\def2TZVP\C6H6N1(1+)\UNKNOWN\14-Jan-2025\0\\#P B
 3LYP/def2tzvp nosymm Density=Current\\Single-Point\\1,1\C,0,0.0127843,
 -1.76304419,0.\C,0,1.24999109,-1.09093007,0.\C,0,1.25984754,0.27355027
 ,0.\C,0,0.,1.01238425,0.\C,0,-1.25711669,0.26870978,0.\C,0,-1.23371473
 ,-1.09154121,0.\H,0,0.01200744,-2.84767578,0.\H,0,2.17036087,-1.658719
 9,0.\H,0,2.17194807,0.85682686,0.\N,0,0.08831621,2.29682198,0.\H,0,-2.
 18816867,0.82323111,0.\H,0,-2.1489088,-1.66796387,0.\H,0,-0.82620141,2
 .7617748,0.\\Version=ES64L-G16RevA.03\HF=-286.7729463\RMSD=5.876e-09\D
 ipole=-0.5085928,-0.6498097,0.\Quadrupole=3.0658289,4.7252634,-7.79109
 23,-3.3178878,0.,0.\PG=CS [SG(C6H6N1)]\\@


 THE GREAT THING ABOUT BEING IMPERFECT IS THE JOY IT BRINGS OTHERS.
   -- SIGN OUTSIDE LAKE AGASSIZ JR. HIGH SCHOOL, FARGO, N.D.
 Job cpu time:       0 days  0 hours  1 minutes 23.0 seconds.
 Elapsed time:       0 days  0 hours  1 minutes 23.4 seconds.
 File lengths (MBytes):  RWF=     40 Int=      0 D2E=      0 Chk=      5 Scr=      1
 Normal termination of Gaussian 16 at Tue Jan 14 14:14:47 2025.
