 Entering Gaussian System, Link 0=g16
 Initial command:
 /sw/cluster/pub/apps//g16/l1.exe "/data/mmaximo/28069/Gau-2561353.inp" -scrdir="/data/mmaximo/28069/"
 Entering Link 1 = /sw/cluster/pub/apps//g16/l1.exe PID=   2561354.
  
 Copyright (c) 1988,1990,1992,1993,1995,1998,2003,2009,2016,
            Gaussian, Inc.  All Rights Reserved.
  
 This is part of the Gaussian(R) 16 program.  It is based on
 the Gaussian(R) 09 system (copyright 2009, Gaussian, Inc.),
 the Gaussian(R) 03 system (copyright 2003, Gaussian, Inc.),
 the Gaussian(R) 98 system (copyright 1998, Gaussian, Inc.),
 the Gaussian(R) 94 system (copyright 1995, Gaussian, Inc.),
 the Gaussian 92(TM) system (copyright 1992, Gaussian, Inc.),
 the Gaussian 90(TM) system (copyright 1990, Gaussian, Inc.),
 the Gaussian 88(TM) system (copyright 1988, Gaussian, Inc.),
 the Gaussian 86(TM) system (copyright 1986, Carnegie Mellon
 University), and the Gaussian 82(TM) system (copyright 1983,
 Carnegie Mellon University). Gaussian is a federally registered
 trademark of Gaussian, Inc.
  
 This software contains proprietary and confidential information,
 including trade secrets, belonging to Gaussian, Inc.
  
 This software is provided under written license and may be
 used, copied, transmitted, or stored only in accord with that
 written license.
  
 The following legend is applicable only to US Government
 contracts under FAR:
  
                    RESTRICTED RIGHTS LEGEND
  
 Use, reproduction and disclosure by the US Government is
 subject to restrictions as set forth in subparagraphs (a)
 and (c) of the Commercial Computer Software - Restricted
 Rights clause in FAR 52.227-19.
  
 Gaussian, Inc.
 340 Quinnipiac St., Bldg. 40, Wallingford CT 06492
  
  
 ---------------------------------------------------------------
 Warning -- This program may not be used in any manner that
 competes with the business of Gaussian, Inc. or will provide
 assistance to any competitor of Gaussian, Inc.  The licensee
 of this program is prohibited from giving any competitor of
 Gaussian, Inc. access to this program.  By using this program,
 the user acknowledges that Gaussian, Inc. is engaged in the
 business of creating and licensing software in the field of
 computational chemistry and represents and warrants to the
 licensee that it is not a competitor of Gaussian, Inc. and that
 it will not use this program in any manner prohibited above.
 ---------------------------------------------------------------
  

 Cite this work as:
 Gaussian 16, Revision A.03,
 M. J. Frisch, G. W. Trucks, H. B. Schlegel, G. E. Scuseria, 
 M. A. Robb, J. R. Cheeseman, G. Scalmani, V. Barone, 
 G. A. Petersson, H. Nakatsuji, X. Li, M. Caricato, A. V. Marenich, 
 J. Bloino, B. G. Janesko, R. Gomperts, B. Mennucci, H. P. Hratchian, 
 J. V. Ortiz, A. F. Izmaylov, J. L. Sonnenberg, D. Williams-Young, 
 F. Ding, F. Lipparini, F. Egidi, J. Goings, B. Peng, A. Petrone, 
 T. Henderson, D. Ranasinghe, V. G. Zakrzewski, J. Gao, N. Rega, 
 G. Zheng, W. Liang, M. Hada, M. Ehara, K. Toyota, R. Fukuda, 
 J. Hasegawa, M. Ishida, T. Nakajima, Y. Honda, O. Kitao, H. Nakai, 
 T. Vreven, K. Throssell, J. A. Montgomery, Jr., J. E. Peralta, 
 F. Ogliaro, M. J. Bearpark, J. J. Heyd, E. N. Brothers, K. N. Kudin, 
 V. N. Staroverov, T. A. Keith, R. Kobayashi, J. Normand, 
 K. Raghavachari, A. P. Rendell, J. C. Burant, S. S. Iyengar, 
 J. Tomasi, M. Cossi, J. M. Millam, M. Klene, C. Adamo, R. Cammi, 
 J. W. Ochterski, R. L. Martin, K. Morokuma, O. Farkas, 
 J. B. Foresman, and D. J. Fox, Gaussian, Inc., Wallingford CT, 2016.
 
 ******************************************
 Gaussian 16:  ES64L-G16RevA.03 25-Dec-2016
                21-Jan-2025 
 ******************************************
 %chk=C6H4-OH-2.chk
 -------------------------
 # opt freq b3lyp def2tzvp
 -------------------------
 1/18=20,19=15,26=3,38=1/1,3;
 2/9=110,12=2,17=6,18=5,40=1/2;
 3/5=44,7=101,11=2,25=1,30=1,71=1,74=-5/1,2,3;
 4//1;
 5/5=2,38=5/2;
 6/7=2,8=2,9=2,10=2,28=1/1;
 7//1,2,3,16;
 1/18=20,19=15,26=3/3(2);
 2/9=110/2;
 99//99;
 2/9=110/2;
 3/5=44,7=101,11=2,25=1,30=1,71=1,74=-5/1,2,3;
 4/5=5,16=3,69=1/1;
 5/5=2,38=5/2;
 7//1,2,3,16;
 1/18=20,19=15,26=3/3(-5);
 2/9=110/2;
 6/7=2,8=2,9=2,10=2,19=2,28=1/1;
 99/9=1/99;
 --------
 opt meta
 --------
 Symbolic Z-matrix:
 Charge =  0 Multiplicity = 1
 C                     1.2072   -0.70066   0. 
 C                     1.2072    0.68947   0. 
 C                     0.0051    1.38533   0. 
 C                    -1.2072    0.70066   0. 
 C                    -1.2072   -0.68947   0. 
 C                    -0.0051   -1.38533   0. 
 O                     2.42158  -1.33813   0. 
 H                     2.15155   1.21736   0. 
 H                     0.01539   2.47005   0. 
 O                    -2.42158   1.33813   0. 
 H                    -2.15155  -1.21736   0. 
 H                    -2.28522   2.29168   0. 
 H                     3.12898  -0.68433   0. 
 C                    -0.0197   -2.92526   0. 
 O                     0.91417  -3.72616   0. 
 O                    -1.28007  -3.42813  -0.00007 
 H                    -1.2607   -4.3991   -0.00007 
 

 GradGradGradGradGradGradGradGradGradGradGradGradGradGradGradGradGradGrad
 Berny optimization.
 Initialization pass.
                           ----------------------------
                           !    Initial Parameters    !
                           ! (Angstroms and Degrees)  !
 --------------------------                            --------------------------
 ! Name  Definition              Value          Derivative Info.                !
 --------------------------------------------------------------------------------
 ! R1    R(1,2)                  1.3901         estimate D2E/DX2                !
 ! R2    R(1,6)                  1.3923         estimate D2E/DX2                !
 ! R3    R(1,7)                  1.3715         estimate D2E/DX2                !
 ! R4    R(2,3)                  1.389          estimate D2E/DX2                !
 ! R5    R(2,8)                  1.0819         estimate D2E/DX2                !
 ! R6    R(3,4)                  1.3923         estimate D2E/DX2                !
 ! R7    R(3,9)                  1.0848         estimate D2E/DX2                !
 ! R8    R(4,5)                  1.3901         estimate D2E/DX2                !
 ! R9    R(4,10)                 1.3715         estimate D2E/DX2                !
 ! R10   R(5,6)                  1.389          estimate D2E/DX2                !
 ! R11   R(5,11)                 1.0819         estimate D2E/DX2                !
 ! R12   R(6,14)                 1.54           estimate D2E/DX2                !
 ! R13   R(7,13)                 0.9633         estimate D2E/DX2                !
 ! R14   R(10,12)                0.9633         estimate D2E/DX2                !
 ! R15   R(14,15)                1.2303         estimate D2E/DX2                !
 ! R16   R(14,16)                1.357          estimate D2E/DX2                !
 ! R17   R(16,17)                0.9712         estimate D2E/DX2                !
 ! A1    A(2,1,6)              119.4565         estimate D2E/DX2                !
 ! A2    A(2,1,7)              117.6966         estimate D2E/DX2                !
 ! A3    A(6,1,7)              122.8469         estimate D2E/DX2                !
 ! A4    A(1,2,3)              120.0651         estimate D2E/DX2                !
 ! A5    A(1,2,8)              119.2052         estimate D2E/DX2                !
 ! A6    A(3,2,8)              120.7297         estimate D2E/DX2                !
 ! A7    A(2,3,4)              120.4784         estimate D2E/DX2                !
 ! A8    A(2,3,9)              119.5216         estimate D2E/DX2                !
 ! A9    A(4,3,9)              120.0            estimate D2E/DX2                !
 ! A10   A(3,4,5)              119.4565         estimate D2E/DX2                !
 ! A11   A(3,4,10)             122.8469         estimate D2E/DX2                !
 ! A12   A(5,4,10)             117.6966         estimate D2E/DX2                !
 ! A13   A(4,5,6)              120.0651         estimate D2E/DX2                !
 ! A14   A(4,5,11)             119.2052         estimate D2E/DX2                !
 ! A15   A(6,5,11)             120.7297         estimate D2E/DX2                !
 ! A16   A(1,6,5)              120.4784         estimate D2E/DX2                !
 ! A17   A(1,6,14)             120.0            estimate D2E/DX2                !
 ! A18   A(5,6,14)             119.5216         estimate D2E/DX2                !
 ! A19   A(1,7,13)             109.5582         estimate D2E/DX2                !
 ! A20   A(4,10,12)            109.5582         estimate D2E/DX2                !
 ! A21   A(6,14,15)            130.0733         estimate D2E/DX2                !
 ! A22   A(6,14,16)            112.2947         estimate D2E/DX2                !
 ! A23   A(15,14,16)           117.632          estimate D2E/DX2                !
 ! A24   A(14,16,17)           110.6079         estimate D2E/DX2                !
 ! D1    D(6,1,2,3)              0.0            estimate D2E/DX2                !
 ! D2    D(6,1,2,8)            180.0            estimate D2E/DX2                !
 ! D3    D(7,1,2,3)            180.0            estimate D2E/DX2                !
 ! D4    D(7,1,2,8)              0.0            estimate D2E/DX2                !
 ! D5    D(2,1,6,5)              0.0            estimate D2E/DX2                !
 ! D6    D(2,1,6,14)           180.0            estimate D2E/DX2                !
 ! D7    D(7,1,6,5)            180.0            estimate D2E/DX2                !
 ! D8    D(7,1,6,14)             0.0            estimate D2E/DX2                !
 ! D9    D(2,1,7,13)             0.0            estimate D2E/DX2                !
 ! D10   D(6,1,7,13)           180.0            estimate D2E/DX2                !
 ! D11   D(1,2,3,4)              0.0            estimate D2E/DX2                !
 ! D12   D(1,2,3,9)            180.0            estimate D2E/DX2                !
 ! D13   D(8,2,3,4)            180.0            estimate D2E/DX2                !
 ! D14   D(8,2,3,9)              0.0            estimate D2E/DX2                !
 ! D15   D(2,3,4,5)              0.0            estimate D2E/DX2                !
 ! D16   D(2,3,4,10)           180.0            estimate D2E/DX2                !
 ! D17   D(9,3,4,5)            180.0            estimate D2E/DX2                !
 ! D18   D(9,3,4,10)             0.0            estimate D2E/DX2                !
 ! D19   D(3,4,5,6)              0.0            estimate D2E/DX2                !
 ! D20   D(3,4,5,11)           180.0            estimate D2E/DX2                !
 ! D21   D(10,4,5,6)           180.0            estimate D2E/DX2                !
 ! D22   D(10,4,5,11)            0.0            estimate D2E/DX2                !
 ! D23   D(3,4,10,12)            0.0            estimate D2E/DX2                !
 ! D24   D(5,4,10,12)          180.0            estimate D2E/DX2                !
 ! D25   D(4,5,6,1)              0.0            estimate D2E/DX2                !
 ! D26   D(4,5,6,14)           180.0            estimate D2E/DX2                !
 ! D27   D(11,5,6,1)           180.0            estimate D2E/DX2                !
 ! D28   D(11,5,6,14)            0.0            estimate D2E/DX2                !
 ! D29   D(1,6,14,15)            0.0            estimate D2E/DX2                !
 ! D30   D(1,6,14,16)         -179.9969         estimate D2E/DX2                !
 ! D31   D(5,6,14,15)          180.0            estimate D2E/DX2                !
 ! D32   D(5,6,14,16)            0.0031         estimate D2E/DX2                !
 ! D33   D(6,14,16,17)         179.9996         estimate D2E/DX2                !
 ! D34   D(15,14,16,17)          0.0023         estimate D2E/DX2                !
 --------------------------------------------------------------------------------
 Trust Radius=3.00D-01 FncErr=1.00D-07 GrdErr=1.00D-06 EigMax=2.50D+02 EigMin=1.00D-04
 Number of steps in this run=     85 maximum allowed number of steps=    102.
 GradGradGradGradGradGradGradGradGradGradGradGradGradGradGradGradGradGrad

                          Input orientation:                          
 ---------------------------------------------------------------------
 Center     Atomic      Atomic             Coordinates (Angstroms)
 Number     Number       Type             X           Y           Z
 ---------------------------------------------------------------------
      1          6           0        1.207202   -0.700658    0.000000
      2          6           0        1.207202    0.689471    0.000000
      3          6           0        0.005096    1.385329    0.000000
      4          6           0       -1.207202    0.700658    0.000000
      5          6           0       -1.207202   -0.689471    0.000000
      6          6           0       -0.005096   -1.385329    0.000000
      7          8           0        2.421583   -1.338130    0.000000
      8          1           0        2.151547    1.217361    0.000000
      9          1           0        0.015386    2.470050    0.000000
     10          8           0       -2.421583    1.338130    0.000000
     11          1           0       -2.151547   -1.217361    0.000000
     12          1           0       -2.285220    2.291683    0.000000
     13          1           0        3.128977   -0.684331    0.000000
     14          6           0       -0.019704   -2.925260    0.000000
     15          8           0        0.914170   -3.726160    0.000000
     16          8           0       -1.280074   -3.428128   -0.000068
     17          1           0       -1.260697   -4.399099   -0.000074
 ---------------------------------------------------------------------
                    Distance matrix (angstroms):
                    1          2          3          4          5
     1  C    0.000000
     2  C    1.390129   0.000000
     3  C    2.407572   1.388984   0.000000
     4  C    2.791601   2.414430   1.392279   0.000000
     5  C    2.414430   2.780437   2.403011   1.390129   0.000000
     6  C    1.392279   2.403011   2.770677   2.407572   1.388984
     7  O    1.371529   2.363448   3.640967   4.162300   3.686305
     8  H    2.137893   1.081876   2.153014   3.398261   3.862280
     9  H    3.387302   2.142636   1.084770   2.150691   3.387816
    10  O    4.162300   3.686305   2.427138   1.371529   2.363448
    11  H    3.398261   3.862280   3.380104   2.137893   1.081876
    12  H    4.599035   3.842408   2.463133   1.921844   3.170079
    13  H    1.921844   2.362319   3.747282   4.551993   4.336182
    14  C    2.540502   3.817274   4.310660   3.815420   2.531581
    15  O    3.039660   4.425344   5.191699   4.908863   3.704281
    16  O    3.691292   4.810526   4.982071   4.129428   2.739626
    17  H    4.446233   5.655446   5.921304   5.100037   3.710013
                    6          7          8          9         10
     6  C    0.000000
     7  O    2.427138   0.000000
     8  H    3.380104   2.569719   0.000000
     9  H    3.855434   4.504667   2.476372   0.000000
    10  O    3.640967   5.533411   4.574725   2.687017   0.000000
    11  H    2.153014   4.574725   4.944137   4.276985   2.569719
    12  H    4.326590   5.943866   4.564984   2.307510   0.963254
    13  H    3.211512   0.963254   2.138177   4.432220   5.907543
    14  C    1.540000   2.911849   4.677140   5.395424   4.893416
    15  O    2.514864   2.824002   5.096029   6.261057   6.064181
    16  O    2.408027   4.250925   5.775517   6.038768   4.901046
    17  H    3.264865   4.788394   6.571760   6.986673   5.853499
                   11         12         13         14         15
    11  H    0.000000
    12  H    3.511589   0.000000
    13  H    5.307359   6.178203   0.000000
    14  C    2.731607   5.687623   3.864706   0.000000
    15  O    3.961401   6.815463   3.762725   1.230269   0.000000
    16  O    2.376332   5.807456   5.193087   1.356986   2.214392
    17  H    3.304099   6.768767   5.750542   1.926724   2.276596
                   16         17
    16  O    0.000000
    17  H    0.971165   0.000000
 Stoichiometry    C7H6O4
 Framework group  C1[X(C7H6O4)]
 Deg. of freedom    45
 Full point group                 C1      NOp   1
 Largest Abelian subgroup         C1      NOp   1
 Largest concise Abelian subgroup C1      NOp   1
                         Standard orientation:                         
 ---------------------------------------------------------------------
 Center     Atomic      Atomic             Coordinates (Angstroms)
 Number     Number       Type             X           Y           Z
 ---------------------------------------------------------------------
      1          6           0       -0.188435    1.258749   -0.000008
      2          6           0        1.123572    1.718203   -0.000008
      3          6           0        2.177634    0.813642   -0.000008
      4          6           0        1.932119   -0.556818   -0.000008
      5          6           0        0.620113   -1.016273   -0.000008
      6          6           0       -0.433950   -0.111712   -0.000008
      7          8           0       -1.191449    2.194193   -0.000008
      8          1           0        1.309678    2.783952   -0.000008
      9          1           0        3.197995    1.181867   -0.000008
     10          8           0        2.935134   -1.492262   -0.000008
     11          1           0        0.434006   -2.082021   -0.000008
     12          1           0        3.790029   -1.048401   -0.000008
     13          1           0       -0.808194    3.077920   -0.000008
     14          6           0       -1.882511   -0.634464   -0.000008
     15          8           0       -2.947059   -0.017780   -0.000008
     16          8           0       -1.940551   -1.990208    0.000061
     17          1           0       -2.863360   -2.292837    0.000066
 ---------------------------------------------------------------------
 Rotational constants (GHZ):           1.7497549           0.8993282           0.5940183
 Standard basis: def2TZVP (5D, 7F)
 There are   432 symmetry adapted cartesian basis functions of A   symmetry.
 There are   377 symmetry adapted basis functions of A   symmetry.
   377 basis functions,   609 primitive gaussians,   432 cartesian basis functions
    40 alpha electrons       40 beta electrons
       nuclear repulsion energy       587.6216623973 Hartrees.
 NAtoms=   17 NActive=   17 NUniq=   17 SFac= 1.00D+00 NAtFMM=   60 NAOKFM=F Big=F
 Integral buffers will be    131072 words long.
 Raffenetti 2 integral format.
 Two-electron integral symmetry is turned on.
 One-electron integrals computed using PRISM.
   1 Symmetry operations used in ECPInt.
 ECPInt:  NShTT=   10585 NPrTT=   33156 LenC2=   10033 LenP2D=   24048.
 LDataN:  DoStor=T MaxTD1= 6 Len=  172
 NBasis=   377 RedAO= T EigKep=  9.25D-06  NBF=   377
 NBsUse=   377 1.00D-06 EigRej= -1.00D+00 NBFU=   377
 ExpMin= 9.52D-02 ExpMax= 2.70D+04 ExpMxC= 9.22D+02 IAcc=3 IRadAn=         5 AccDes= 0.00D+00
 Harris functional with IExCor=  402 and IRadAn=       5 diagonalized for initial guess.
 HarFok:  IExCor=  402 AccDes= 0.00D+00 IRadAn=         5 IDoV= 1 UseB2=F ITyADJ=14
 ICtDFT=  3500011 ScaDFX=  1.000000  1.000000  1.000000  1.000000
 FoFCou: FMM=F IPFlag=           0 FMFlag=      100000 FMFlg1=           0
         NFxFlg=           0 DoJE=T BraDBF=F KetDBF=T FulRan=T
         wScrn=  0.000000 ICntrl=       500 IOpCl=  0 I1Cent=   200000004 NGrid=           0
         NMat0=    1 NMatS0=      1 NMatT0=    0 NMatD0=    1 NMtDS0=    0 NMtDT0=    0
 Petite list used in FoFCou.
 Requested convergence on RMS density matrix=1.00D-08 within 128 cycles.
 Requested convergence on MAX density matrix=1.00D-06.
 Requested convergence on             energy=1.00D-06.
 No special actions if energy rises.
 Integral accuracy reduced to 1.0D-05 until final iterations.
 Initial convergence to 1.0D-05 achieved.  Increase integral accuracy.
 SCF Done:  E(RB3LYP) =  -571.489342636     A.U. after   14 cycles
            NFock= 14  Conv=0.53D-08     -V/T= 2.0048

 **********************************************************************

            Population analysis using the SCF density.

 **********************************************************************

 Orbital symmetries:
       Occupied  (A) (A) (A) (A) (A) (A) (A) (A) (A) (A) (A) (A)
                 (A) (A) (A) (A) (A) (A) (A) (A) (A) (A) (A) (A)
                 (A) (A) (A) (A) (A) (A) (A) (A) (A) (A) (A) (A)
                 (A) (A) (A) (A)
       Virtual   (A) (A) (A) (A) (A) (A) (A) (A) (A) (A) (A) (A)
                 (A) (A) (A) (A) (A) (A) (A) (A) (A) (A) (A) (A)
                 (A) (A) (A) (A) (A) (A) (A) (A) (A) (A) (A) (A)
                 (A) (A) (A) (A) (A) (A) (A) (A) (A) (A) (A) (A)
                 (A) (A) (A) (A) (A) (A) (A) (A) (A) (A) (A) (A)
                 (A) (A) (A) (A) (A) (A) (A) (A) (A) (A) (A) (A)
                 (A) (A) (A) (A) (A) (A) (A) (A) (A) (A) (A) (A)
                 (A) (A) (A) (A) (A) (A) (A) (A) (A) (A) (A) (A)
                 (A) (A) (A) (A) (A) (A) (A) (A) (A) (A) (A) (A)
                 (A) (A) (A) (A) (A) (A) (A) (A) (A) (A) (A) (A)
                 (A) (A) (A) (A) (A) (A) (A) (A) (A) (A) (A) (A)
                 (A) (A) (A) (A) (A) (A) (A) (A) (A) (A) (A) (A)
                 (A) (A) (A) (A) (A) (A) (A) (A) (A) (A) (A) (A)
                 (A) (A) (A) (A) (A) (A) (A) (A) (A) (A) (A) (A)
                 (A) (A) (A) (A) (A) (A) (A) (A) (A) (A) (A) (A)
                 (A) (A) (A) (A) (A) (A) (A) (A) (A) (A) (A) (A)
                 (A) (A) (A) (A) (A) (A) (A) (A) (A) (A) (A) (A)
                 (A) (A) (A) (A) (A) (A) (A) (A) (A) (A) (A) (A)
                 (A) (A) (A) (A) (A) (A) (A) (A) (A) (A) (A) (A)
                 (A) (A) (A) (A) (A) (A) (A) (A) (A) (A) (A) (A)
                 (A) (A) (A) (A) (A) (A) (A) (A) (A) (A) (A) (A)
                 (A) (A) (A) (A) (A) (A) (A) (A) (A) (A) (A) (A)
                 (A) (A) (A) (A) (A) (A) (A) (A) (A) (A) (A) (A)
                 (A) (A) (A) (A) (A) (A) (A) (A) (A) (A) (A) (A)
                 (A) (A) (A) (A) (A) (A) (A) (A) (A) (A) (A) (A)
                 (A) (A) (A) (A) (A) (A) (A) (A) (A) (A) (A) (A)
                 (A) (A) (A) (A) (A) (A) (A) (A) (A) (A) (A) (A)
                 (A) (A) (A) (A) (A) (A) (A) (A) (A) (A) (A) (A)
                 (A)
 The electronic state is 1-A.
 Alpha  occ. eigenvalues --  -19.16864 -19.16778 -19.16287 -19.10930 -10.31288
 Alpha  occ. eigenvalues --  -10.25347 -10.24752 -10.20941 -10.19968 -10.19526
 Alpha  occ. eigenvalues --  -10.19140  -1.10162  -1.07330  -1.06984  -1.00073
 Alpha  occ. eigenvalues --   -0.87538  -0.78541  -0.75582  -0.67560  -0.64738
 Alpha  occ. eigenvalues --   -0.61783  -0.56557  -0.55582  -0.51218  -0.49066
 Alpha  occ. eigenvalues --   -0.47566  -0.45769  -0.45434  -0.44158  -0.42819
 Alpha  occ. eigenvalues --   -0.42151  -0.40609  -0.39534  -0.37608  -0.36828
 Alpha  occ. eigenvalues --   -0.32919  -0.31877  -0.28174  -0.27345  -0.22708
 Alpha virt. eigenvalues --   -0.05973  -0.00998   0.01570   0.01902   0.03532
 Alpha virt. eigenvalues --    0.04184   0.05523   0.09832   0.10430   0.11130
 Alpha virt. eigenvalues --    0.14024   0.14972   0.17265   0.17970   0.18984
 Alpha virt. eigenvalues --    0.19431   0.20344   0.22074   0.22104   0.24452
 Alpha virt. eigenvalues --    0.25427   0.25720   0.26284   0.28007   0.28355
 Alpha virt. eigenvalues --    0.28815   0.30816   0.31037   0.32421   0.32924
 Alpha virt. eigenvalues --    0.34521   0.35167   0.35190   0.36833   0.37609
 Alpha virt. eigenvalues --    0.38583   0.39980   0.40850   0.42265   0.42781
 Alpha virt. eigenvalues --    0.44691   0.44997   0.46948   0.47422   0.48078
 Alpha virt. eigenvalues --    0.48722   0.49288   0.49855   0.50733   0.51846
 Alpha virt. eigenvalues --    0.54350   0.56209   0.56227   0.58477   0.60128
 Alpha virt. eigenvalues --    0.61583   0.62411   0.62513   0.63487   0.64982
 Alpha virt. eigenvalues --    0.66988   0.68331   0.68733   0.69543   0.71112
 Alpha virt. eigenvalues --    0.73360   0.76416   0.76652   0.78729   0.78913
 Alpha virt. eigenvalues --    0.80610   0.81750   0.81945   0.83641   0.85130
 Alpha virt. eigenvalues --    0.86566   0.87491   0.90093   0.91388   0.92978
 Alpha virt. eigenvalues --    0.94686   0.96443   0.98140   0.99815   1.04920
 Alpha virt. eigenvalues --    1.05020   1.07671   1.09512   1.10044   1.10754
 Alpha virt. eigenvalues --    1.12436   1.18954   1.20326   1.21247   1.23414
 Alpha virt. eigenvalues --    1.24131   1.24645   1.26968   1.27894   1.31361
 Alpha virt. eigenvalues --    1.32796   1.35428   1.36312   1.37375   1.39149
 Alpha virt. eigenvalues --    1.43285   1.44515   1.44963   1.47127   1.48252
 Alpha virt. eigenvalues --    1.49783   1.51604   1.52702   1.58109   1.59584
 Alpha virt. eigenvalues --    1.60660   1.61807   1.63083   1.65737   1.66423
 Alpha virt. eigenvalues --    1.66855   1.70188   1.70533   1.73839   1.74274
 Alpha virt. eigenvalues --    1.77660   1.77723   1.81073   1.83607   1.83614
 Alpha virt. eigenvalues --    1.84048   1.85470   1.87868   1.88791   1.90480
 Alpha virt. eigenvalues --    1.94599   1.95350   1.96897   1.98488   2.01544
 Alpha virt. eigenvalues --    2.02437   2.03272   2.03704   2.08594   2.10111
 Alpha virt. eigenvalues --    2.12097   2.13084   2.13251   2.15154   2.17668
 Alpha virt. eigenvalues --    2.19027   2.20791   2.23228   2.25255   2.27223
 Alpha virt. eigenvalues --    2.29083   2.31171   2.31720   2.36553   2.38218
 Alpha virt. eigenvalues --    2.44110   2.46395   2.48443   2.50033   2.50525
 Alpha virt. eigenvalues --    2.54812   2.56117   2.61753   2.62848   2.62967
 Alpha virt. eigenvalues --    2.63256   2.66151   2.67606   2.69321   2.69683
 Alpha virt. eigenvalues --    2.71777   2.73178   2.74097   2.74759   2.76633
 Alpha virt. eigenvalues --    2.80107   2.81092   2.81405   2.83496   2.84676
 Alpha virt. eigenvalues --    2.84703   2.88682   2.88704   2.89505   2.92150
 Alpha virt. eigenvalues --    2.93228   2.93732   2.94464   2.94527   2.96686
 Alpha virt. eigenvalues --    2.97164   3.01495   3.04640   3.05731   3.10230
 Alpha virt. eigenvalues --    3.11350   3.12241   3.13703   3.14566   3.14736
 Alpha virt. eigenvalues --    3.16278   3.17091   3.18611   3.20573   3.20849
 Alpha virt. eigenvalues --    3.25284   3.26736   3.29065   3.29863   3.29865
 Alpha virt. eigenvalues --    3.31526   3.33340   3.34284   3.34933   3.38209
 Alpha virt. eigenvalues --    3.38855   3.39193   3.40774   3.42516   3.44379
 Alpha virt. eigenvalues --    3.46137   3.47913   3.49894   3.50690   3.53294
 Alpha virt. eigenvalues --    3.54171   3.56961   3.62550   3.64743   3.65872
 Alpha virt. eigenvalues --    3.70278   3.75906   3.78557   3.82778   3.86145
 Alpha virt. eigenvalues --    3.86533   3.88843   3.95880   3.97626   4.01402
 Alpha virt. eigenvalues --    4.03599   4.04505   4.05719   4.12950   4.13245
 Alpha virt. eigenvalues --    4.15343   4.17820   4.20433   4.20940   4.21533
 Alpha virt. eigenvalues --    4.25352   4.28758   4.36016   4.36677   4.41790
 Alpha virt. eigenvalues --    4.53193   4.54291   4.55260   4.59675   4.60457
 Alpha virt. eigenvalues --    4.63920   4.71508   4.78009   4.83707   4.86480
 Alpha virt. eigenvalues --    4.86816   4.96119   5.08371   5.10758   5.13617
 Alpha virt. eigenvalues --    5.17532   5.17923   5.20979   5.23359   5.26036
 Alpha virt. eigenvalues --    5.26783   5.35461   5.36710   5.41805   5.43669
 Alpha virt. eigenvalues --    5.45026   5.47782   5.49298   5.52999   5.60069
 Alpha virt. eigenvalues --    5.62490   5.73747   5.76710   5.77007   5.83377
 Alpha virt. eigenvalues --    5.91759   5.93504   6.05898   6.12027   6.19458
 Alpha virt. eigenvalues --    6.26552   6.30544   6.34131   6.35012   6.38897
 Alpha virt. eigenvalues --    6.39629   6.41242   6.41833   6.44839   6.51535
 Alpha virt. eigenvalues --    6.68600   6.69490   6.70144   6.70458   6.76911
 Alpha virt. eigenvalues --    6.81796   6.82868   6.84679   6.91573   6.96664
 Alpha virt. eigenvalues --    7.01225   7.05940   7.17636   7.23393   7.29514
 Alpha virt. eigenvalues --    7.35170  22.11523  22.65196  22.74336  22.86009
 Alpha virt. eigenvalues --   22.97904  23.18067  23.44505  43.78724  43.83149
 Alpha virt. eigenvalues --   43.89507  43.97148
          Condensed to atoms (all electrons):
               1          2          3          4          5          6
     1  C    4.929647   0.450242   0.060156  -0.068719  -0.054272   0.255589
     2  C    0.450242   5.383218   0.099952   0.065154  -0.078007  -0.051066
     3  C    0.060156   0.099952   5.470026   0.356683  -0.022636  -0.070337
     4  C   -0.068719   0.065154   0.356683   4.709502   0.412859   0.015228
     5  C   -0.054272  -0.078007  -0.022636   0.412859   5.258569   0.350577
     6  C    0.255589  -0.051066  -0.070337   0.015228   0.350577   5.731173
     7  O    0.415111  -0.099856   0.009454   0.000962  -0.000086  -0.089088
     8  H   -0.064395   0.404710  -0.010798   0.003951  -0.000474   0.013197
     9  H    0.004379  -0.008232   0.397310  -0.052363   0.005603  -0.000839
    10  O   -0.001811   0.015876  -0.100858   0.386156  -0.068188   0.001245
    11  H    0.019712  -0.007468   0.018523  -0.070163   0.436785  -0.045552
    12  H   -0.000841   0.007737  -0.021674  -0.039867   0.012007  -0.000714
    13  H   -0.051633  -0.013815   0.006225  -0.000508   0.000139   0.025267
    14  C   -0.066073   0.018696  -0.005319   0.017386  -0.055327   0.113806
    15  O   -0.001130   0.002671  -0.000200   0.000422   0.003446  -0.118851
    16  O   -0.005969   0.000233   0.000075   0.001390   0.026706  -0.186843
    17  H    0.000878  -0.000012   0.000025  -0.000315  -0.004886   0.031362
               7          8          9         10         11         12
     1  C    0.415111  -0.064395   0.004379  -0.001811   0.019712  -0.000841
     2  C   -0.099856   0.404710  -0.008232   0.015876  -0.007468   0.007737
     3  C    0.009454  -0.010798   0.397310  -0.100858   0.018523  -0.021674
     4  C    0.000962   0.003951  -0.052363   0.386156  -0.070163  -0.039867
     5  C   -0.000086  -0.000474   0.005603  -0.068188   0.436785   0.012007
     6  C   -0.089088   0.013197  -0.000839   0.001245  -0.045552  -0.000714
     7  O    7.841770  -0.004321  -0.000212   0.000000  -0.000076  -0.000001
     8  H   -0.004321   0.560183  -0.006414  -0.000091   0.000025  -0.000035
     9  H   -0.000212  -0.006414   0.555674  -0.004315  -0.000178   0.003342
    10  O    0.000000  -0.000091  -0.004315   7.865455   0.005275   0.298390
    11  H   -0.000076   0.000025  -0.000178   0.005275   0.504942  -0.001072
    12  H   -0.000001  -0.000035   0.003342   0.298390  -0.001072   0.434422
    13  H    0.286453   0.007028  -0.000094  -0.000001   0.000017   0.000000
    14  C    0.006784  -0.000215   0.000029   0.000136  -0.016631  -0.000029
    15  O   -0.011153   0.000045  -0.000002   0.000000   0.000626  -0.000000
    16  O   -0.000151   0.000012  -0.000001   0.000003   0.012788  -0.000000
    17  H    0.000049  -0.000002   0.000000  -0.000001  -0.000409   0.000000
              13         14         15         16         17
     1  C   -0.051633  -0.066073  -0.001130  -0.005969   0.000878
     2  C   -0.013815   0.018696   0.002671   0.000233  -0.000012
     3  C    0.006225  -0.005319  -0.000200   0.000075   0.000025
     4  C   -0.000508   0.017386   0.000422   0.001390  -0.000315
     5  C    0.000139  -0.055327   0.003446   0.026706  -0.004886
     6  C    0.025267   0.113806  -0.118851  -0.186843   0.031362
     7  O    0.286453   0.006784  -0.011153  -0.000151   0.000049
     8  H    0.007028  -0.000215   0.000045   0.000012  -0.000002
     9  H   -0.000094   0.000029  -0.000002  -0.000001   0.000000
    10  O   -0.000001   0.000136   0.000000   0.000003  -0.000001
    11  H    0.000017  -0.016631   0.000626   0.012788  -0.000409
    12  H    0.000000  -0.000029  -0.000000  -0.000000   0.000000
    13  H    0.436525  -0.001250   0.000616   0.000015  -0.000004
    14  C   -0.001250   4.544741   0.730972   0.438201  -0.032974
    15  O    0.000616   0.730972   7.808513  -0.111047   0.008799
    16  O    0.000015   0.438201  -0.111047   7.934323   0.280284
    17  H   -0.000004  -0.032974   0.008799   0.280284   0.395502
 Mulliken charges:
               1
     1  C    0.179130
     2  C   -0.190032
     3  C   -0.186608
     4  C    0.262245
     5  C   -0.222814
     6  C    0.025847
     7  O   -0.355639
     8  H    0.097594
     9  H    0.106311
    10  O   -0.397272
    11  H    0.142857
    12  H    0.308336
    13  H    0.305018
    14  C    0.307066
    15  O   -0.313726
    16  O   -0.390017
    17  H    0.321705
 Sum of Mulliken charges =  -0.00000
 Mulliken charges with hydrogens summed into heavy atoms:
               1
     1  C    0.179130
     2  C   -0.092438
     3  C   -0.080297
     4  C    0.262245
     5  C   -0.079957
     6  C    0.025847
     7  O   -0.050621
    10  O   -0.088936
    14  C    0.307066
    15  O   -0.313726
    16  O   -0.068313
 Electronic spatial extent (au):  <R**2>=           1765.4447
 Charge=             -0.0000 electrons
 Dipole moment (field-independent basis, Debye):
    X=              3.9366    Y=              1.3673    Z=              0.0000  Tot=              4.1673
 Quadrupole moment (field-independent basis, Debye-Ang):
   XX=            -58.5384   YY=            -52.9318   ZZ=            -64.9684
   XY=             10.4968   XZ=             -0.0002   YZ=             -0.0000
 Traceless Quadrupole moment (field-independent basis, Debye-Ang):
   XX=              0.2745   YY=              5.8811   ZZ=             -6.1555
   XY=             10.4968   XZ=             -0.0002   YZ=             -0.0000
 Octapole moment (field-independent basis, Debye-Ang**2):
  XXX=             59.7352  YYY=             30.8534  ZZZ=              0.0003  XYY=            -22.0256
  XXY=            -23.5728  XXZ=              0.0007  XZZ=             -7.8790  YZZ=             -3.0530
  YYZ=              0.0001  XYZ=              0.0002
 Hexadecapole moment (field-independent basis, Debye-Ang**3):
 XXXX=          -1166.5932 YYYY=           -595.0559 ZZZZ=            -66.0686 XXXY=             75.6866
 XXXZ=             -0.0006 YYYX=             34.8318 YYYZ=              0.0017 ZZZX=              0.0027
 ZZZY=              0.0027 XXYY=           -318.3279 XXZZ=           -246.1208 YYZZ=           -143.0895
 XXYZ=             -0.0005 YYXZ=             -0.0000 ZZXY=             -4.2907
 N-N= 5.876216623973D+02 E-N=-2.514358730811D+03  KE= 5.687369733297D+02
   1 Symmetry operations used in ECPInt.
 ECPInt:  NShTT=   10585 NPrTT=   33156 LenC2=   10033 LenP2D=   24048.
 LDataN:  DoStor=T MaxTD1= 7 Len=  274
 Calling FoFJK, ICntrl=      2127 FMM=F ISym2X=0 I1Cent= 0 IOpClX= 0 NMat=1 NMatS=1 NMatT=0.
 ***** Axes restored to original set *****
 -------------------------------------------------------------------
 Center     Atomic                   Forces (Hartrees/Bohr)
 Number     Number              X              Y              Z
 -------------------------------------------------------------------
      1        6           0.025270016    0.008814831    0.000000302
      2        6          -0.012900412    0.002357599   -0.000000140
      3        6           0.002756055    0.002566408    0.000000007
      4        6          -0.001912925   -0.002499849   -0.000000070
      5        6          -0.004304993    0.008241334    0.000000078
      6        6           0.004513024   -0.043507310    0.000001731
      7        8          -0.011734455   -0.008370907    0.000000046
      8        1           0.000114129    0.001993204   -0.000000016
      9        1          -0.000204005    0.000137306    0.000000014
     10        8           0.002089150   -0.000808500    0.000000004
     11        1           0.002281879   -0.000071909    0.000000004
     12        1          -0.000416239    0.000239402   -0.000000000
     13        1          -0.001681307    0.001019323   -0.000000027
     14        6           0.018820821   -0.025607531   -0.000007614
     15        8          -0.017737899    0.037672179    0.000003308
     16        8          -0.013595554    0.013003925    0.000002142
     17        1           0.008642715    0.004820493    0.000000232
 -------------------------------------------------------------------
 Cartesian Forces:  Max     0.043507310 RMS     0.011144209

 GradGradGradGradGradGradGradGradGradGradGradGradGradGradGradGradGradGrad
 Berny optimization.
 FormGI is forming the generalized inverse of G from B-inverse, IUseBI=4.
 Internal  Forces:  Max     0.037989172 RMS     0.007509486
 Search for a local minimum.
 Step number   1 out of a maximum of   85
 All quantities printed in internal units (Hartrees-Bohrs-Radians)
 Mixed Optimization -- RFO/linear search
 Second derivative matrix not updated -- first step.
 ITU=  0
     Eigenvalues ---    0.00237   0.00787   0.01612   0.02068   0.02068
     Eigenvalues ---    0.02177   0.02184   0.02202   0.02210   0.02214
     Eigenvalues ---    0.02227   0.02227   0.02228   0.02261   0.16000
     Eigenvalues ---    0.16000   0.16000   0.16000   0.16000   0.16000
     Eigenvalues ---    0.22373   0.23489   0.24610   0.25000   0.25000
     Eigenvalues ---    0.25000   0.25000   0.25000   0.28519   0.35424
     Eigenvalues ---    0.35769   0.35769   0.42931   0.43083   0.46924
     Eigenvalues ---    0.47251   0.47296   0.47496   0.50684   0.50684
     Eigenvalues ---    0.53140   0.53562   0.54779   0.54779   0.90974
 RFO step:  Lambda=-1.19587402D-02 EMin= 2.36824262D-03
 Linear search not attempted -- first point.
 Iteration  1 RMS(Cart)=  0.04469568 RMS(Int)=  0.00067831
 Iteration  2 RMS(Cart)=  0.00079120 RMS(Int)=  0.00001174
 Iteration  3 RMS(Cart)=  0.00000039 RMS(Int)=  0.00001173
 Variable       Old X    -DE/DX   Delta X   Delta X   Delta X     New X
                                 (Linear)    (Quad)   (Total)
    R1        2.62696   0.00654   0.00000   0.01399   0.01400   2.64096
    R2        2.63103   0.00604   0.00000   0.01338   0.01341   2.64443
    R3        2.59181  -0.00846   0.00000  -0.01631  -0.01631   2.57550
    R4        2.62480  -0.00180   0.00000  -0.00402  -0.00403   2.62077
    R5        2.04445   0.00107   0.00000   0.00290   0.00290   2.04735
    R6        2.63103  -0.00044   0.00000  -0.00175  -0.00177   2.62925
    R7        2.04992   0.00014   0.00000   0.00037   0.00037   2.05029
    R8        2.62696  -0.00256   0.00000  -0.00577  -0.00578   2.62118
    R9        2.59181  -0.00175   0.00000  -0.00337  -0.00337   2.58845
   R10        2.62480   0.00546   0.00000   0.01154   0.01155   2.63635
   R11        2.04445  -0.00196   0.00000  -0.00529  -0.00529   2.03916
   R12        2.91018  -0.02985   0.00000  -0.10046  -0.10046   2.80972
   R13        1.82029  -0.00054   0.00000  -0.00097  -0.00097   1.81932
   R14        1.82029   0.00018   0.00000   0.00032   0.00032   1.82061
   R15        2.32487  -0.03799   0.00000  -0.04122  -0.04122   2.28366
   R16        2.56433  -0.00200   0.00000  -0.00366  -0.00366   2.56067
   R17        1.83524  -0.00465   0.00000  -0.00855  -0.00855   1.82668
    A1        2.08491  -0.00387   0.00000  -0.01271  -0.01267   2.07224
    A2        2.05419   0.01673   0.00000   0.06284   0.06282   2.11701
    A3        2.14408  -0.01286   0.00000  -0.05013  -0.05015   2.09393
    A4        2.09553   0.00395   0.00000   0.01688   0.01688   2.11242
    A5        2.08052  -0.00025   0.00000   0.00157   0.00157   2.08209
    A6        2.10713  -0.00370   0.00000  -0.01845  -0.01845   2.08868
    A7        2.10275  -0.00101   0.00000  -0.00732  -0.00736   2.09539
    A8        2.08604   0.00072   0.00000   0.00488   0.00490   2.09094
    A9        2.09440   0.00030   0.00000   0.00244   0.00246   2.09685
   A10        2.08491   0.00062   0.00000  -0.00055  -0.00059   2.08432
   A11        2.14408  -0.00026   0.00000   0.00047   0.00049   2.14457
   A12        2.05419  -0.00036   0.00000   0.00008   0.00010   2.05430
   A13        2.09553   0.00326   0.00000   0.01323   0.01323   2.10876
   A14        2.08052  -0.00043   0.00000   0.00037   0.00038   2.08090
   A15        2.10713  -0.00283   0.00000  -0.01361  -0.01360   2.09353
   A16        2.10275  -0.00295   0.00000  -0.00953  -0.00950   2.09325
   A17        2.09440   0.00327   0.00000   0.01161   0.01159   2.10598
   A18        2.08604  -0.00031   0.00000  -0.00207  -0.00209   2.08396
   A19        1.91215  -0.00344   0.00000  -0.02000  -0.02000   1.89215
   A20        1.91215   0.00081   0.00000   0.00472   0.00472   1.91687
   A21        2.27021  -0.01605   0.00000  -0.06126  -0.06126   2.20895
   A22        1.95991  -0.00754   0.00000  -0.02878  -0.02878   1.93113
   A23        2.05307   0.02359   0.00000   0.09004   0.09004   2.14311
   A24        1.93047  -0.01603   0.00000  -0.09324  -0.09324   1.83723
    D1        0.00000   0.00000   0.00000   0.00000   0.00000   0.00000
    D2        3.14159   0.00000   0.00000   0.00000   0.00000  -3.14159
    D3        3.14159   0.00000   0.00000   0.00000   0.00000  -3.14159
    D4        0.00000  -0.00000   0.00000  -0.00000  -0.00000  -0.00000
    D5        0.00000  -0.00000   0.00000  -0.00000  -0.00000  -0.00000
    D6        3.14159  -0.00000   0.00000  -0.00000  -0.00000   3.14159
    D7        3.14159  -0.00000   0.00000  -0.00000  -0.00000   3.14159
    D8        0.00000  -0.00000   0.00000  -0.00000  -0.00000  -0.00000
    D9        0.00000   0.00000   0.00000   0.00000   0.00000   0.00000
   D10        3.14159  -0.00000   0.00000  -0.00000  -0.00000   3.14159
   D11        0.00000  -0.00000   0.00000  -0.00000  -0.00000  -0.00000
   D12        3.14159  -0.00000   0.00000  -0.00000  -0.00000   3.14159
   D13        3.14159   0.00000   0.00000   0.00000   0.00000  -3.14159
   D14        0.00000  -0.00000   0.00000  -0.00000  -0.00000  -0.00000
   D15        0.00000  -0.00000   0.00000  -0.00000  -0.00000  -0.00000
   D16        3.14159  -0.00000   0.00000  -0.00000  -0.00000   3.14159
   D17        3.14159  -0.00000   0.00000  -0.00000  -0.00000   3.14159
   D18        0.00000   0.00000   0.00000   0.00000   0.00000   0.00000
   D19        0.00000  -0.00000   0.00000  -0.00000  -0.00000  -0.00000
   D20        3.14159   0.00000   0.00000   0.00000   0.00000  -3.14159
   D21        3.14159  -0.00000   0.00000  -0.00000  -0.00000   3.14159
   D22        0.00000   0.00000   0.00000   0.00000   0.00000   0.00000
   D23        0.00000  -0.00000   0.00000  -0.00000  -0.00000  -0.00000
   D24        3.14159   0.00000   0.00000   0.00000   0.00000  -3.14159
   D25        0.00000   0.00000   0.00000   0.00000   0.00000   0.00000
   D26        3.14159   0.00000   0.00000   0.00000   0.00000  -3.14159
   D27        3.14159   0.00000   0.00000   0.00000   0.00000  -3.14159
   D28        0.00000   0.00000   0.00000   0.00000   0.00000   0.00000
   D29        0.00000   0.00000   0.00000   0.00008   0.00008   0.00008
   D30       -3.14154  -0.00000   0.00000  -0.00010  -0.00009   3.14155
   D31        3.14159   0.00000   0.00000   0.00008   0.00008  -3.14151
   D32        0.00005  -0.00000   0.00000  -0.00010  -0.00009  -0.00004
   D33        3.14159   0.00000   0.00000   0.00007   0.00007  -3.14153
   D34        0.00004  -0.00000   0.00000  -0.00008  -0.00009  -0.00005
         Item               Value     Threshold  Converged?
 Maximum Force            0.037989     0.000450     NO 
 RMS     Force            0.007509     0.000300     NO 
 Maximum Displacement     0.181125     0.001800     NO 
 RMS     Displacement     0.044807     0.001200     NO 
 Predicted change in Energy=-6.233228D-03
 GradGradGradGradGradGradGradGradGradGradGradGradGradGradGradGradGradGrad

                          Input orientation:                          
 ---------------------------------------------------------------------
 Center     Atomic      Atomic             Coordinates (Angstroms)
 Number     Number       Type             X           Y           Z
 ---------------------------------------------------------------------
      1          6           0        1.221492   -0.714273   -0.000013
      2          6           0        1.198043    0.683068    0.000010
      3          6           0       -0.002142    1.377983    0.000013
      4          6           0       -1.208631    0.685007   -0.000007
      5          6           0       -1.197757   -0.702021   -0.000031
      6          6           0        0.005855   -1.407436   -0.000035
      7          8           0        2.397797   -1.402603   -0.000017
      8          1           0        2.133871    1.228966    0.000026
      9          1           0        0.002949    2.462936    0.000032
     10          8           0       -2.426324    1.312250   -0.000004
     11          1           0       -2.135299   -1.236265   -0.000047
     12          1           0       -2.301824    2.267595    0.000013
     13          1           0        3.121588   -0.767784   -0.000001
     14          6           0       -0.019366   -2.894062   -0.000064
     15          8           0        0.938917   -3.630313    0.000009
     16          8           0       -1.295314   -3.350256   -0.000033
     17          1           0       -1.221017   -4.314035    0.000008
 ---------------------------------------------------------------------
                    Distance matrix (angstroms):
                    1          2          3          4          5
     1  C    0.000000
     2  C    1.397537   0.000000
     3  C    2.423801   1.386850   0.000000
     4  C    2.804190   2.406675   1.391342   0.000000
     5  C    2.419280   2.767369   2.399148   1.387070   0.000000
     6  C    1.399374   2.406558   2.785430   2.419358   1.395096
     7  O    1.362899   2.406124   3.673059   4.167066   3.663171
     8  H    2.146769   1.083411   2.141205   3.386475   3.850774
     9  H    3.402867   2.143871   1.084966   2.151502   3.385063
    10  O    4.172931   3.678574   2.425073   1.369748   2.359378
    11  H    3.397134   3.846429   3.374115   2.133073   1.079075
    12  H    4.615765   3.841848   2.465755   1.923449   3.168214
    13  H    1.900850   2.409355   3.789723   4.567428   4.319845
    14  C    2.508228   3.778616   4.272079   3.771483   2.488704
    15  O    2.929700   4.321157   5.095941   4.820160   3.624951
    16  O    3.644546   4.741785   4.901891   4.036193   2.650031
    17  H    4.350188   5.551836   5.821058   4.999057   3.612089
                    6          7          8          9         10
     6  C    0.000000
     7  O    2.391947   0.000000
     8  H    3.388078   2.644771   0.000000
     9  H    3.870374   4.547273   2.462420   0.000000
    10  O    3.648587   5.535573   4.560956   2.688019   0.000000
    11  H    2.147986   4.536147   4.929826   4.272727   2.565078
    12  H    4.339497   5.962951   4.555671   2.313036   0.963423
    13  H    3.180715   0.962741   2.227688   4.490374   5.925020
    14  C    1.486839   2.840268   4.651429   5.357045   4.846288
    15  O    2.410765   2.662898   5.004050   6.164716   5.979446
    16  O    2.338287   4.175215   5.720890   5.956399   4.797723
    17  H    3.154922   4.644594   6.479208   6.886613   5.753942
                   11         12         13         14         15
    11  H    0.000000
    12  H    3.507814   0.000000
    13  H    5.277721   6.215055   0.000000
    14  C    2.688023   5.643785   3.792974   0.000000
    15  O    3.896443   6.729615   3.599740   1.208458   0.000000
    16  O    2.274760   5.707303   5.116462   1.355049   2.251715
    17  H    3.210698   6.669782   5.606614   1.860185   2.265566
                   16         17
    16  O    0.000000
    17  H    0.966639   0.000000
 Stoichiometry    C7H6O4
 Framework group  C1[X(C7H6O4)]
 Deg. of freedom    45
 Full point group                 C1      NOp   1
 Largest Abelian subgroup         C1      NOp   1
 Largest concise Abelian subgroup C1      NOp   1
                         Standard orientation:                         
 ---------------------------------------------------------------------
 Center     Atomic      Atomic             Coordinates (Angstroms)
 Number     Number       Type             X           Y           Z
 ---------------------------------------------------------------------
      1          6           0       -0.251019    1.259413   -0.000000
      2          6           0        1.060700    1.741598   -0.000024
      3          6           0        2.141764    0.872890   -0.000027
      4          6           0        1.930654   -0.502342   -0.000007
      5          6           0        0.633089   -0.992534    0.000017
      6          6           0       -0.459004   -0.124419    0.000022
      7          8           0       -1.317328    2.108223    0.000003
      8          1           0        1.232269    2.811338   -0.000039
      9          1           0        3.151834    1.269007   -0.000046
     10          8           0        2.954918   -1.411789   -0.000009
     11          1           0        0.473008   -2.059669    0.000033
     12          1           0        3.801031   -0.951055   -0.000026
     13          1           0       -0.986338    3.012278   -0.000013
     14          6           0       -1.836441   -0.684203    0.000050
     15          8           0       -2.868799   -0.056023   -0.000022
     16          8           0       -1.801656   -2.038805    0.000020
     17          1           0       -2.727347   -2.317169   -0.000022
 ---------------------------------------------------------------------
 Rotational constants (GHZ):           1.7801241           0.9228792           0.6077830
 Standard basis: def2TZVP (5D, 7F)
 There are   432 symmetry adapted cartesian basis functions of A   symmetry.
 There are   377 symmetry adapted basis functions of A   symmetry.
   377 basis functions,   609 primitive gaussians,   432 cartesian basis functions
    40 alpha electrons       40 beta electrons
       nuclear repulsion energy       592.4871013237 Hartrees.
 NAtoms=   17 NActive=   17 NUniq=   17 SFac= 1.00D+00 NAtFMM=   60 NAOKFM=F Big=F
 Integral buffers will be    131072 words long.
 Raffenetti 2 integral format.
 Two-electron integral symmetry is turned on.
 One-electron integrals computed using PRISM.
   1 Symmetry operations used in ECPInt.
 ECPInt:  NShTT=   10585 NPrTT=   33156 LenC2=   10047 LenP2D=   24141.
 LDataN:  DoStor=T MaxTD1= 6 Len=  172
 NBasis=   377 RedAO= T EigKep=  9.31D-06  NBF=   377
 NBsUse=   377 1.00D-06 EigRej= -1.00D+00 NBFU=   377
 Initial guess from the checkpoint file:  "C6H4-OH-2.chk"
 B after Tr=     0.000000   -0.000000   -0.000000
         Rot=    0.999865   -0.000001   -0.000000   -0.016409 Ang=  -1.88 deg.
 ExpMin= 9.52D-02 ExpMax= 2.70D+04 ExpMxC= 9.22D+02 IAcc=2 IRadAn=         4 AccDes= 0.00D+00
 Harris functional with IExCor=  402 and IRadAn=       4 diagonalized for initial guess.
 HarFok:  IExCor=  402 AccDes= 0.00D+00 IRadAn=         4 IDoV= 1 UseB2=F ITyADJ=14
 ICtDFT=  3500011 ScaDFX=  1.000000  1.000000  1.000000  1.000000
 FoFCou: FMM=F IPFlag=           0 FMFlag=      100000 FMFlg1=           0
         NFxFlg=           0 DoJE=T BraDBF=F KetDBF=T FulRan=T
         wScrn=  0.000000 ICntrl=       500 IOpCl=  0 I1Cent=   200000004 NGrid=           0
         NMat0=    1 NMatS0=      1 NMatT0=    0 NMatD0=    1 NMtDS0=    0 NMtDT0=    0
 Petite list used in FoFCou.
 Requested convergence on RMS density matrix=1.00D-08 within 128 cycles.
 Requested convergence on MAX density matrix=1.00D-06.
 Requested convergence on             energy=1.00D-06.
 No special actions if energy rises.
 Integral accuracy reduced to 1.0D-05 until final iterations.
 Initial convergence to 1.0D-05 achieved.  Increase integral accuracy.
 SCF Done:  E(RB3LYP) =  -571.494595193     A.U. after   12 cycles
            NFock= 12  Conv=0.92D-08     -V/T= 2.0045
   1 Symmetry operations used in ECPInt.
 ECPInt:  NShTT=   10585 NPrTT=   33156 LenC2=   10047 LenP2D=   24141.
 LDataN:  DoStor=T MaxTD1= 7 Len=  274
 Calling FoFJK, ICntrl=      2127 FMM=F ISym2X=0 I1Cent= 0 IOpClX= 0 NMat=1 NMatS=1 NMatT=0.
 ***** Axes restored to original set *****
 -------------------------------------------------------------------
 Center     Atomic                   Forces (Hartrees/Bohr)
 Number     Number              X              Y              Z
 -------------------------------------------------------------------
      1        6           0.006058636    0.004914289   -0.000000214
      2        6          -0.000374563   -0.002640955    0.000000316
      3        6           0.000839132   -0.000050214   -0.000000030
      4        6          -0.001378310   -0.001408019    0.000000280
      5        6          -0.000548317    0.006117928   -0.000000432
      6        6           0.000345399   -0.007846617   -0.000005123
      7        8          -0.003778414    0.003764954   -0.000000230
      8        1           0.000510652    0.000499128    0.000000035
      9        1           0.000389107   -0.000248326   -0.000000034
     10        8           0.000088359    0.000185595    0.000000035
     11        1           0.000328477    0.000402793   -0.000000096
     12        1          -0.000099766   -0.000115204    0.000000005
     13        1           0.001887217    0.000591780    0.000000010
     14        6           0.007481949    0.005628312    0.000016911
     15        8          -0.009719491    0.000945500   -0.000006692
     16        8          -0.000332166   -0.007422062   -0.000004647
     17        1          -0.001697903   -0.003318883   -0.000000093
 -------------------------------------------------------------------
 Cartesian Forces:  Max     0.009719491 RMS     0.002995149

 GradGradGradGradGradGradGradGradGradGradGradGradGradGradGradGradGradGrad
 Berny optimization.
 Using GEDIIS/GDIIS optimizer.
 FormGI is forming the generalized inverse of G from B-inverse, IUseBI=4.
 Internal  Forces:  Max     0.010800628 RMS     0.002687854
 Search for a local minimum.
 Step number   2 out of a maximum of   85
 All quantities printed in internal units (Hartrees-Bohrs-Radians)
 Mixed Optimization -- RFO/linear search
 Update second derivatives using D2CorX and points    1    2
 DE= -5.25D-03 DEPred=-6.23D-03 R= 8.43D-01
 TightC=F SS=  1.41D+00  RLast= 2.06D-01 DXNew= 5.0454D-01 6.1835D-01
 Trust test= 8.43D-01 RLast= 2.06D-01 DXMaxT set to 5.05D-01
 ITU=  1  0
 Use linear search instead of GDIIS.
     Eigenvalues ---    0.00237   0.00871   0.01605   0.02068   0.02068
     Eigenvalues ---    0.02177   0.02185   0.02202   0.02210   0.02214
     Eigenvalues ---    0.02227   0.02227   0.02228   0.02261   0.15952
     Eigenvalues ---    0.16000   0.16000   0.16000   0.16000   0.16347
     Eigenvalues ---    0.21598   0.23054   0.24042   0.24685   0.25000
     Eigenvalues ---    0.25000   0.25000   0.27243   0.34488   0.35434
     Eigenvalues ---    0.35761   0.35803   0.42783   0.43453   0.46834
     Eigenvalues ---    0.47263   0.47454   0.48032   0.50326   0.50695
     Eigenvalues ---    0.53252   0.54511   0.54779   0.55192   0.85642
 RFO step:  Lambda=-1.06902619D-03 EMin= 2.36824262D-03
 Quartic linear search produced a step of -0.12246.
 Iteration  1 RMS(Cart)=  0.01618833 RMS(Int)=  0.00008587
 Iteration  2 RMS(Cart)=  0.00011560 RMS(Int)=  0.00000716
 Iteration  3 RMS(Cart)=  0.00000001 RMS(Int)=  0.00000716
 Variable       Old X    -DE/DX   Delta X   Delta X   Delta X     New X
                                 (Linear)    (Quad)   (Total)
    R1        2.64096  -0.00248  -0.00171  -0.00143  -0.00315   2.63781
    R2        2.64443   0.00815  -0.00164   0.01874   0.01711   2.66154
    R3        2.57550  -0.00383   0.00200  -0.01023  -0.00823   2.56728
    R4        2.62077  -0.00119   0.00049  -0.00358  -0.00310   2.61767
    R5        2.04735   0.00069  -0.00036   0.00234   0.00199   2.04934
    R6        2.62925   0.00004   0.00022  -0.00088  -0.00068   2.62858
    R7        2.05029  -0.00025  -0.00005  -0.00053  -0.00057   2.04972
    R8        2.62118  -0.00131   0.00071  -0.00377  -0.00306   2.61813
    R9        2.58845   0.00004   0.00041  -0.00067  -0.00026   2.58819
   R10        2.63635   0.00399  -0.00141   0.01040   0.00900   2.64535
   R11        2.03916  -0.00048   0.00065  -0.00237  -0.00172   2.03743
   R12        2.80972   0.00424   0.01230  -0.00980   0.00250   2.81222
   R13        1.81932   0.00181   0.00012   0.00268   0.00280   1.82211
   R14        1.82061  -0.00013  -0.00004  -0.00013  -0.00017   1.82043
   R15        2.28366  -0.00828   0.00505  -0.01695  -0.01190   2.27175
   R16        2.56067   0.00553   0.00045   0.00823   0.00868   2.56935
   R17        1.82668   0.00318   0.00105   0.00335   0.00440   1.83108
    A1        2.07224   0.00131   0.00155   0.00265   0.00421   2.07645
    A2        2.11701  -0.00354  -0.00769   0.00151  -0.00618   2.11083
    A3        2.09393   0.00223   0.00614  -0.00417   0.00197   2.09590
    A4        2.11242   0.00108  -0.00207   0.00701   0.00492   2.11734
    A5        2.08209  -0.00036  -0.00019  -0.00016  -0.00034   2.08175
    A6        2.08868  -0.00072   0.00226  -0.00685  -0.00458   2.08410
    A7        2.09539   0.00037   0.00090  -0.00279  -0.00191   2.09348
    A8        2.09094  -0.00059  -0.00060  -0.00049  -0.00108   2.08986
    A9        2.09685   0.00021  -0.00030   0.00328   0.00299   2.09984
   A10        2.08432   0.00011   0.00007  -0.00122  -0.00115   2.08317
   A11        2.14457  -0.00005  -0.00006   0.00067   0.00061   2.14518
   A12        2.05430  -0.00006  -0.00001   0.00056   0.00055   2.05484
   A13        2.10876   0.00237  -0.00162   0.01308   0.01148   2.12024
   A14        2.08090  -0.00138  -0.00005  -0.00592  -0.00597   2.07493
   A15        2.09353  -0.00100   0.00167  -0.00716  -0.00550   2.08802
   A16        2.09325  -0.00525   0.00116  -0.01873  -0.01755   2.07570
   A17        2.10598   0.00413  -0.00142   0.01618   0.01475   2.12074
   A18        2.08396   0.00112   0.00026   0.00255   0.00279   2.08675
   A19        1.89215   0.00145   0.00245   0.00317   0.00562   1.89777
   A20        1.91687   0.00015  -0.00058   0.00196   0.00138   1.91825
   A21        2.20895   0.00101   0.00750  -0.01049  -0.00299   2.20596
   A22        1.93113   0.00979   0.00352   0.02763   0.03116   1.96229
   A23        2.14311  -0.01080  -0.01103  -0.01714  -0.02817   2.11494
   A24        1.83723   0.00356   0.01142  -0.00276   0.00866   1.84589
    D1        0.00000  -0.00000  -0.00000  -0.00000  -0.00000  -0.00000
    D2       -3.14159  -0.00000  -0.00000  -0.00000  -0.00000   3.14159
    D3       -3.14159  -0.00000  -0.00000  -0.00000  -0.00000   3.14159
    D4       -0.00000  -0.00000   0.00000  -0.00000  -0.00000  -0.00000
    D5       -0.00000   0.00000   0.00000   0.00001   0.00001   0.00001
    D6        3.14159   0.00000   0.00000   0.00001   0.00001  -3.14158
    D7        3.14159   0.00000   0.00000   0.00001   0.00001  -3.14159
    D8       -0.00000   0.00000   0.00000   0.00001   0.00001   0.00001
    D9        0.00000  -0.00000  -0.00000  -0.00000  -0.00000  -0.00000
   D10        3.14159   0.00000   0.00000  -0.00000  -0.00000   3.14159
   D11       -0.00000  -0.00000   0.00000  -0.00000  -0.00000  -0.00000
   D12        3.14159   0.00000   0.00000   0.00000   0.00000  -3.14159
   D13       -3.14159  -0.00000  -0.00000  -0.00000  -0.00000   3.14159
   D14       -0.00000  -0.00000   0.00000  -0.00000  -0.00000  -0.00000
   D15       -0.00000   0.00000   0.00000   0.00000   0.00000   0.00000
   D16        3.14159   0.00000   0.00000   0.00000   0.00000  -3.14159
   D17        3.14159  -0.00000   0.00000  -0.00000  -0.00000   3.14159
   D18        0.00000  -0.00000  -0.00000  -0.00000  -0.00000  -0.00000
   D19       -0.00000   0.00000   0.00000   0.00000   0.00000   0.00000
   D20       -3.14159  -0.00000  -0.00000  -0.00000  -0.00000   3.14159
   D21        3.14159   0.00000   0.00000   0.00000   0.00000  -3.14159
   D22        0.00000  -0.00000  -0.00000  -0.00000  -0.00000  -0.00000
   D23       -0.00000  -0.00000   0.00000  -0.00000  -0.00000  -0.00000
   D24       -3.14159  -0.00000  -0.00000  -0.00000  -0.00000   3.14159
   D25        0.00000  -0.00000  -0.00000  -0.00001  -0.00001  -0.00001
   D26       -3.14159  -0.00000  -0.00000  -0.00001  -0.00001   3.14158
   D27       -3.14159  -0.00000  -0.00000  -0.00000  -0.00000   3.14159
   D28        0.00000  -0.00000  -0.00000  -0.00001  -0.00001  -0.00001
   D29        0.00008  -0.00000  -0.00001  -0.00031  -0.00032  -0.00024
   D30        3.14155   0.00000   0.00001   0.00035   0.00036  -3.14127
   D31       -3.14151  -0.00000  -0.00001  -0.00030  -0.00032   3.14136
   D32       -0.00004   0.00000   0.00001   0.00035   0.00036   0.00033
   D33       -3.14153  -0.00000  -0.00001  -0.00032  -0.00033   3.14133
   D34       -0.00005   0.00000   0.00001   0.00030   0.00031   0.00026
         Item               Value     Threshold  Converged?
 Maximum Force            0.010801     0.000450     NO 
 RMS     Force            0.002688     0.000300     NO 
 Maximum Displacement     0.075881     0.001800     NO 
 RMS     Displacement     0.016156     0.001200     NO 
 Predicted change in Energy=-6.480322D-04
 GradGradGradGradGradGradGradGradGradGradGradGradGradGradGradGradGradGrad

                          Input orientation:                          
 ---------------------------------------------------------------------
 Center     Atomic      Atomic             Coordinates (Angstroms)
 Number     Number       Type             X           Y           Z
 ---------------------------------------------------------------------
      1          6           0        1.224356   -0.709456    0.000040
      2          6           0        1.197982    0.686165   -0.000028
      3          6           0        0.001168    1.383620   -0.000038
      4          6           0       -1.205630    0.691903    0.000020
      5          6           0       -1.194410   -0.693504    0.000087
      6          6           0        0.005293   -1.414831    0.000103
      7          8           0        2.402557   -1.385832    0.000046
      8          1           0        2.133747    1.234257   -0.000076
      9          1           0        0.010475    2.468244   -0.000092
     10          8           0       -2.423022    1.319433    0.000014
     11          1           0       -2.134195   -1.221934    0.000132
     12          1           0       -2.299576    2.274823   -0.000035
     13          1           0        3.125756   -0.748098   -0.000004
     14          6           0       -0.032485   -2.902513    0.000189
     15          8           0        0.916806   -3.640099   -0.000014
     16          8           0       -1.302022   -3.389233   -0.000166
     17          1           0       -1.213963   -4.354189   -0.000321
 ---------------------------------------------------------------------
                    Distance matrix (angstroms):
                    1          2          3          4          5
     1  C    0.000000
     2  C    1.395870   0.000000
     3  C    2.424285   1.385210   0.000000
     4  C    2.805110   2.403619   1.390983   0.000000
     5  C    2.418819   2.761707   2.396634   1.385453   0.000000
     6  C    1.408428   2.415925   2.798454   2.429952   1.399857
     7  O    1.358544   2.396701   3.665588   4.163652   3.662989
     8  H    2.145929   1.084463   2.137803   3.383133   3.846153
     9  H    3.401659   2.141489   1.084664   2.152742   3.383548
    10  O    4.173698   3.675962   2.425039   1.369612   2.358263
    11  H    3.397426   3.839824   3.368781   2.127206   1.078162
    12  H    4.617793   3.841451   2.467319   1.924149   3.167390
    13  H    1.901793   2.402795   3.782496   4.564484   4.320511
    14  C    2.527677   3.793766   4.286265   3.781019   2.495955
    15  O    2.946737   4.335392   5.106481   4.824001   3.624866
    16  O    3.682905   4.781097   4.947568   4.082275   2.697876
    17  H    4.385144   5.587724   5.865066   5.046100   3.660737
                    6          7          8          9         10
     6  C    0.000000
     7  O    2.397439   0.000000
     8  H    3.398233   2.633843   0.000000
     9  H    3.883078   4.536073   2.455811   0.000000
    10  O    3.656900   5.532149   4.557565   2.691035   0.000000
    11  H    2.148166   4.539712   4.924246   4.268140   2.557727
    12  H    4.350398   5.959064   4.553803   2.318134   0.963331
    13  H    3.190897   0.964221   2.216713   4.477704   5.921454
    14  C    1.488162   2.868754   4.669628   5.370929   4.851752
    15  O    2.404719   2.699848   5.023972   6.175216   5.979248
    16  O    2.367981   4.211594   5.760310   6.002723   4.840267
    17  H    3.182203   4.678714   6.514438   6.931439   5.801019
                   11         12         13         14         15
    11  H    0.000000
    12  H    3.500665   0.000000
    13  H    5.281251   6.210658   0.000000
    14  C    2.691010   5.651947   3.823087   0.000000
    15  O    3.893088   6.732861   3.639111   1.202159   0.000000
    16  O    2.321572   5.751230   5.155659   1.359640   2.232965
    17  H    3.264636   6.717318   5.642434   1.871699   2.247243
                   16         17
    16  O    0.000000
    17  H    0.968966   0.000000
 Stoichiometry    C7H6O4
 Framework group  C1[X(C7H6O4)]
 Deg. of freedom    45
 Full point group                 C1      NOp   1
 Largest Abelian subgroup         C1      NOp   1
 Largest concise Abelian subgroup C1      NOp   1
                         Standard orientation:                         
 ---------------------------------------------------------------------
 Center     Atomic      Atomic             Coordinates (Angstroms)
 Number     Number       Type             X           Y           Z
 ---------------------------------------------------------------------
      1          6           0       -0.226671    1.269868   -0.000029
      2          6           0        1.092002    1.727640    0.000039
      3          6           0        2.160230    0.845770    0.000049
      4          6           0        1.928407   -0.525759   -0.000009
      5          6           0        0.624557   -0.994220   -0.000076
      6          6           0       -0.467070   -0.117892   -0.000092
      7          8           0       -1.268685    2.141561   -0.000035
      8          1           0        1.282764    2.795194    0.000087
      9          1           0        3.174748    1.229499    0.000103
     10          8           0        2.938137   -1.451114   -0.000003
     11          1           0        0.453635   -2.058748   -0.000121
     12          1           0        3.791928   -1.004966    0.000046
     13          1           0       -0.920317    3.040651    0.000015
     14          6           0       -1.849946   -0.667689   -0.000178
     15          8           0       -2.870253   -0.031952    0.000025
     16          8           0       -1.867723   -2.027213    0.000177
     17          1           0       -2.803617   -2.278207    0.000332
 ---------------------------------------------------------------------
 Rotational constants (GHZ):           1.7652093           0.9178824           0.6038760
 Standard basis: def2TZVP (5D, 7F)
 There are   432 symmetry adapted cartesian basis functions of A   symmetry.
 There are   377 symmetry adapted basis functions of A   symmetry.
   377 basis functions,   609 primitive gaussians,   432 cartesian basis functions
    40 alpha electrons       40 beta electrons
       nuclear repulsion energy       591.3301100920 Hartrees.
 NAtoms=   17 NActive=   17 NUniq=   17 SFac= 1.00D+00 NAtFMM=   60 NAOKFM=F Big=F
 Integral buffers will be    131072 words long.
 Raffenetti 2 integral format.
 Two-electron integral symmetry is turned on.
 One-electron integrals computed using PRISM.
   1 Symmetry operations used in ECPInt.
 ECPInt:  NShTT=   10585 NPrTT=   33156 LenC2=   10039 LenP2D=   24110.
 LDataN:  DoStor=T MaxTD1= 6 Len=  172
 NBasis=   377 RedAO= T EigKep=  9.39D-06  NBF=   377
 NBsUse=   377 1.00D-06 EigRej= -1.00D+00 NBFU=   377
 Initial guess from the checkpoint file:  "C6H4-OH-2.chk"
 B after Tr=    -0.000000   -0.000000    0.000000
         Rot=    0.999971    0.000003    0.000002    0.007601 Ang=   0.87 deg.
 ExpMin= 9.52D-02 ExpMax= 2.70D+04 ExpMxC= 9.22D+02 IAcc=2 IRadAn=         4 AccDes= 0.00D+00
 Harris functional with IExCor=  402 and IRadAn=       4 diagonalized for initial guess.
 HarFok:  IExCor=  402 AccDes= 0.00D+00 IRadAn=         4 IDoV= 1 UseB2=F ITyADJ=14
 ICtDFT=  3500011 ScaDFX=  1.000000  1.000000  1.000000  1.000000
 FoFCou: FMM=F IPFlag=           0 FMFlag=      100000 FMFlg1=           0
         NFxFlg=           0 DoJE=T BraDBF=F KetDBF=T FulRan=T
         wScrn=  0.000000 ICntrl=       500 IOpCl=  0 I1Cent=   200000004 NGrid=           0
         NMat0=    1 NMatS0=      1 NMatT0=    0 NMatD0=    1 NMtDS0=    0 NMtDT0=    0
 Petite list used in FoFCou.
 Requested convergence on RMS density matrix=1.00D-08 within 128 cycles.
 Requested convergence on MAX density matrix=1.00D-06.
 Requested convergence on             energy=1.00D-06.
 No special actions if energy rises.
 Integral accuracy reduced to 1.0D-05 until final iterations.
 Initial convergence to 1.0D-05 achieved.  Increase integral accuracy.
 SCF Done:  E(RB3LYP) =  -571.495189438     A.U. after   11 cycles
            NFock= 11  Conv=0.83D-08     -V/T= 2.0045
   1 Symmetry operations used in ECPInt.
 ECPInt:  NShTT=   10585 NPrTT=   33156 LenC2=   10039 LenP2D=   24110.
 LDataN:  DoStor=T MaxTD1= 7 Len=  274
 Calling FoFJK, ICntrl=      2127 FMM=F ISym2X=0 I1Cent= 0 IOpClX= 0 NMat=1 NMatS=1 NMatT=0.
 ***** Axes restored to original set *****
 -------------------------------------------------------------------
 Center     Atomic                   Forces (Hartrees/Bohr)
 Number     Number              X              Y              Z
 -------------------------------------------------------------------
      1        6           0.000666880    0.000220582    0.000001748
      2        6           0.000318200   -0.001469600   -0.000001350
      3        6          -0.000193494    0.000197917    0.000000123
      4        6          -0.000548858   -0.000260844   -0.000001250
      5        6           0.001095250    0.000847254    0.000002013
      6        6          -0.001477234   -0.000710469    0.000021967
      7        8          -0.000787236    0.001353410    0.000001021
      8        1           0.000173538   -0.000243867   -0.000000099
      9        1           0.000165095   -0.000065394    0.000000139
     10        8          -0.000256104   -0.000045150   -0.000000086
     11        1          -0.000596490   -0.000591355    0.000000408
     12        1           0.000056963   -0.000110374   -0.000000027
     13        1           0.000492164   -0.000283873   -0.000000076
     14        6           0.000314010    0.003639376   -0.000077182
     15        8           0.002895760   -0.002572441    0.000029320
     16        8          -0.002346282    0.000074294    0.000022981
     17        1           0.000027837    0.000020534    0.000000351
 -------------------------------------------------------------------
 Cartesian Forces:  Max     0.003639376 RMS     0.000943032

 GradGradGradGradGradGradGradGradGradGradGradGradGradGradGradGradGradGrad
 Berny optimization.
 Using GEDIIS/GDIIS optimizer.
 FormGI is forming the generalized inverse of G from B-inverse, IUseBI=4.
 Internal  Forces:  Max     0.003864863 RMS     0.000660864
 Search for a local minimum.
 Step number   3 out of a maximum of   85
 All quantities printed in internal units (Hartrees-Bohrs-Radians)
 Mixed Optimization -- En-DIIS/RFO-DIIS
 Update second derivatives using D2CorX and points    1    2    3
 DE= -5.94D-04 DEPred=-6.48D-04 R= 9.17D-01
 TightC=F SS=  1.41D+00  RLast= 5.88D-02 DXNew= 8.4853D-01 1.7653D-01
 Trust test= 9.17D-01 RLast= 5.88D-02 DXMaxT set to 5.05D-01
 ITU=  1  1  0
 Use linear search instead of GDIIS.
     Eigenvalues ---    0.00237   0.00858   0.01593   0.02068   0.02068
     Eigenvalues ---    0.02177   0.02185   0.02202   0.02210   0.02214
     Eigenvalues ---    0.02227   0.02227   0.02228   0.02261   0.15679
     Eigenvalues ---    0.16000   0.16000   0.16000   0.16036   0.16401
     Eigenvalues ---    0.21098   0.22943   0.24493   0.24779   0.25000
     Eigenvalues ---    0.25000   0.25574   0.26670   0.35195   0.35440
     Eigenvalues ---    0.35752   0.36281   0.43025   0.44876   0.46154
     Eigenvalues ---    0.47292   0.47431   0.47658   0.49901   0.50687
     Eigenvalues ---    0.53062   0.53713   0.54778   0.54852   0.93439
 RFO step:  Lambda=-5.73975286D-05 EMin= 2.36824283D-03
 Quartic linear search produced a step of -0.06454.
 Iteration  1 RMS(Cart)=  0.00432615 RMS(Int)=  0.00000782
 Iteration  2 RMS(Cart)=  0.00001342 RMS(Int)=  0.00000105
 Iteration  3 RMS(Cart)=  0.00000000 RMS(Int)=  0.00000105
 Variable       Old X    -DE/DX   Delta X   Delta X   Delta X     New X
                                 (Linear)    (Quad)   (Total)
    R1        2.63781  -0.00151   0.00020  -0.00334  -0.00314   2.63468
    R2        2.66154   0.00014  -0.00110   0.00197   0.00087   2.66241
    R3        2.56728  -0.00079   0.00053  -0.00225  -0.00172   2.56555
    R4        2.61767   0.00059   0.00020   0.00086   0.00106   2.61873
    R5        2.04934   0.00003  -0.00013   0.00027   0.00014   2.04948
    R6        2.62858   0.00043   0.00004   0.00086   0.00090   2.62948
    R7        2.04972  -0.00006   0.00004  -0.00023  -0.00019   2.04953
    R8        2.61813  -0.00048   0.00020  -0.00120  -0.00100   2.61712
    R9        2.58819   0.00011   0.00002   0.00017   0.00019   2.58838
   R10        2.64535  -0.00037  -0.00058   0.00018  -0.00040   2.64494
   R11        2.03743   0.00081   0.00011   0.00191   0.00202   2.03945
   R12        2.81222  -0.00118  -0.00016  -0.00329  -0.00345   2.80877
   R13        1.82211   0.00018  -0.00018   0.00060   0.00042   1.82253
   R14        1.82043  -0.00010   0.00001  -0.00019  -0.00018   1.82025
   R15        2.27175   0.00386   0.00077   0.00274   0.00351   2.27526
   R16        2.56935   0.00213  -0.00056   0.00457   0.00401   2.57336
   R17        1.83108  -0.00002  -0.00028   0.00045   0.00017   1.83125
    A1        2.07645  -0.00016  -0.00027  -0.00036  -0.00063   2.07582
    A2        2.11083  -0.00043   0.00040  -0.00227  -0.00187   2.10896
    A3        2.09590   0.00059  -0.00013   0.00263   0.00251   2.09841
    A4        2.11734   0.00016  -0.00032   0.00108   0.00076   2.11810
    A5        2.08175  -0.00039   0.00002  -0.00210  -0.00208   2.07967
    A6        2.08410   0.00023   0.00030   0.00102   0.00132   2.08541
    A7        2.09348   0.00004   0.00012   0.00018   0.00030   2.09378
    A8        2.08986  -0.00019   0.00007  -0.00128  -0.00121   2.08865
    A9        2.09984   0.00015  -0.00019   0.00110   0.00091   2.10075
   A10        2.08317  -0.00049   0.00007  -0.00174  -0.00166   2.08150
   A11        2.14518   0.00048  -0.00004   0.00172   0.00168   2.14686
   A12        2.05484   0.00001  -0.00004   0.00001  -0.00002   2.05482
   A13        2.12024   0.00019  -0.00074   0.00192   0.00118   2.12141
   A14        2.07493   0.00013   0.00039   0.00030   0.00069   2.07561
   A15        2.08802  -0.00032   0.00036  -0.00222  -0.00186   2.08616
   A16        2.07570   0.00026   0.00113  -0.00107   0.00006   2.07576
   A17        2.12074   0.00010  -0.00095   0.00200   0.00105   2.12178
   A18        2.08675  -0.00036  -0.00018  -0.00092  -0.00110   2.08565
   A19        1.89777   0.00098  -0.00036   0.00627   0.00590   1.90368
   A20        1.91825  -0.00013  -0.00009  -0.00061  -0.00070   1.91755
   A21        2.20596   0.00115   0.00019   0.00409   0.00428   2.21024
   A22        1.96229  -0.00173  -0.00201  -0.00302  -0.00504   1.95725
   A23        2.11494   0.00058   0.00182  -0.00107   0.00075   2.11569
   A24        1.84589  -0.00005  -0.00056   0.00085   0.00030   1.84619
    D1       -0.00000   0.00000   0.00000   0.00002   0.00002   0.00002
    D2        3.14159   0.00000   0.00000   0.00001   0.00001  -3.14158
    D3        3.14159   0.00000   0.00000   0.00001   0.00001  -3.14158
    D4       -0.00000   0.00000   0.00000   0.00000   0.00000   0.00000
    D5        0.00001  -0.00000  -0.00000  -0.00004  -0.00004  -0.00004
    D6       -3.14158  -0.00000  -0.00000  -0.00005  -0.00005   3.14155
    D7       -3.14159  -0.00000  -0.00000  -0.00003  -0.00003   3.14157
    D8        0.00001  -0.00000  -0.00000  -0.00004  -0.00004  -0.00003
    D9       -0.00000   0.00000   0.00000   0.00000   0.00000   0.00000
   D10        3.14159  -0.00000   0.00000  -0.00001  -0.00001   3.14158
   D11       -0.00000   0.00000   0.00000   0.00000   0.00000   0.00000
   D12       -3.14159  -0.00000  -0.00000  -0.00000  -0.00000   3.14159
   D13        3.14159   0.00000   0.00000   0.00001   0.00001  -3.14159
   D14       -0.00000   0.00000   0.00000   0.00000   0.00000   0.00000
   D15        0.00000  -0.00000  -0.00000  -0.00000  -0.00000  -0.00000
   D16       -3.14159  -0.00000  -0.00000  -0.00000  -0.00000   3.14159
   D17        3.14159   0.00000   0.00000   0.00000   0.00000  -3.14159
   D18       -0.00000   0.00000   0.00000   0.00000   0.00000   0.00000
   D19        0.00000  -0.00000  -0.00000  -0.00002  -0.00002  -0.00002
   D20        3.14159   0.00000   0.00000   0.00001   0.00001  -3.14159
   D21       -3.14159  -0.00000  -0.00000  -0.00002  -0.00002   3.14158
   D22       -0.00000   0.00000   0.00000   0.00001   0.00001   0.00001
   D23       -0.00000   0.00000   0.00000   0.00000   0.00000   0.00000
   D24        3.14159   0.00000   0.00000   0.00000   0.00000  -3.14159
   D25       -0.00001   0.00000   0.00000   0.00004   0.00005   0.00004
   D26        3.14158   0.00000   0.00000   0.00005   0.00005  -3.14155
   D27        3.14159   0.00000   0.00000   0.00002   0.00002  -3.14158
   D28       -0.00001   0.00000   0.00000   0.00002   0.00002   0.00002
   D29       -0.00024   0.00002   0.00002   0.00182   0.00184   0.00161
   D30       -3.14127  -0.00002  -0.00002  -0.00225  -0.00227   3.13964
   D31        3.14136   0.00002   0.00002   0.00181   0.00184  -3.13999
   D32        0.00033  -0.00002  -0.00002  -0.00226  -0.00228  -0.00196
   D33        3.14133   0.00002   0.00002   0.00193   0.00194  -3.13991
   D34        0.00026  -0.00002  -0.00002  -0.00190  -0.00192  -0.00166
         Item               Value     Threshold  Converged?
 Maximum Force            0.003865     0.000450     NO 
 RMS     Force            0.000661     0.000300     NO 
 Maximum Displacement     0.016801     0.001800     NO 
 RMS     Displacement     0.004332     0.001200     NO 
 Predicted change in Energy=-3.151766D-05
 GradGradGradGradGradGradGradGradGradGradGradGradGradGradGradGradGradGrad

                          Input orientation:                          
 ---------------------------------------------------------------------
 Center     Atomic      Atomic             Coordinates (Angstroms)
 Number     Number       Type             X           Y           Z
 ---------------------------------------------------------------------
      1          6           0        1.226344   -0.708822   -0.000285
      2          6           0        1.198315    0.685107    0.000217
      3          6           0        0.000706    1.382310    0.000285
      4          6           0       -1.206406    0.690182   -0.000151
      5          6           0       -1.192686   -0.694671   -0.000653
      6          6           0        0.007289   -1.415130   -0.000752
[...]

 ----------------------------------------------------------------------

 Dipole orientation:
     6          2.40310962         -0.18067476         -1.16205697
     6          2.15413722         -0.16195527          1.46043455
     6         -0.19437895          0.01462146          2.60609465
     6         -2.36529357          0.17784361          1.13133027
     6         -2.14423214          0.16122082         -1.47646289
     6          0.21161469         -0.01590577         -2.66510440
     8          4.71153948         -0.35423735         -2.26513572
     1          3.83694172         -0.28847868          2.62340630
     1         -0.32657485          0.02456186          4.65133008
     8         -4.74330390          0.35663825          2.13738366
     1         -3.83418122          0.28828041         -2.61123722
     1         -4.64803170          0.34947708          3.95516403
     1          5.98675218         -0.45011454         -0.96699572
     6          0.35317279         -0.02655149         -5.46883803
     8          2.23909510         -0.16833716         -6.73475895
     8         -1.97346928          0.14837933         -6.55979565
     1         -1.67657672          0.12606305         -8.36646570

 Electric dipole moment (dipole orientation):
 (Debye = 10**-18 statcoulomb cm , SI units = C m)
                  (au)            (Debye)         (10**-30 SI)
   Tot        0.157423D+01      0.400130D+01      0.133469D+02
   x          0.000000D+00      0.000000D+00      0.000000D+00
   y          0.000000D+00      0.000000D+00      0.000000D+00
   z          0.157423D+01      0.400130D+01      0.133469D+02

 Dipole polarizability, Alpha (dipole orientation).
 (esu units = cm**3 , SI units = C**2 m**2 J**-1)
 Alpha(0;0):
               (au)            (10**-24 esu)      (10**-40 SI)
   iso        0.962499D+02      0.142628D+02      0.158695D+02
   aniso      0.707128D+02      0.104786D+02      0.116590D+02
   xx         0.111983D+03      0.165942D+02      0.184635D+02
   yx        -0.463818D+01     -0.687307D+00     -0.764732D+00
   yy         0.506423D+02      0.750442D+01      0.834979D+01
   zx        -0.591792D+01     -0.876945D+00     -0.975733D+00
   zy         0.444950D+00      0.659347D-01      0.733623D-01
   zz         0.126124D+03      0.186897D+02      0.207951D+02

 ----------------------------------------------------------------------
 1\1\GINC-N02\Freq\RB3LYP\def2TZVP\C7H6O4\UNKNOWN\21-Jan-2025\0\\#N Geo
 m=AllCheck Guess=TCheck SCRF=Check GenChk RB3LYP/def2TZVP Freq\\opt me
 ta\\0,1\C,1.2255676641,-0.7088128293,-0.0000056284\C,1.1978611638,0.68
 49497504,0.0000056328\C,0.0005323291,1.3829381267,0.00000774\C,-1.2067
 757894,0.6910942166,-0.0000008525\C,-1.1932559339,-0.6938017581,-0.000
 0111143\C,0.006246839,-1.4147625612,-0.0000140947\O,2.4033730871,-1.38
 27366822,-0.0000076944\H,2.1345025307,1.2316842737,0.0000125173\H,0.01
 17193625,2.46744362,0.0000160994\O,-2.4252509976,1.3165872709,0.000000
 4193\H,-2.1325593113,-1.2253725977,-0.000017358\H,-2.3027170443,2.2720
 175037,0.000007543\H,3.1296887161,-0.7484591714,-0.0000011618\C,-0.030
 0783361,-2.8998908554,-0.0000250671\O,0.9176847263,-3.6429347519,-0.00
 00336982\O,-1.3045668397,-3.3830088581,-0.0000321857\H,-1.2191356364,-
 4.3481788363,-0.0000430167\\Version=ES64L-G16RevA.03\State=1-A\HF=-571
 .4952256\RMSD=5.082e-09\RMSF=4.358e-05\ZeroPoint=0.1229768\Thermal=0.1
 326709\Dipole=0.1180241,1.5698012,0.0000132\DipoleDeriv=1.0584346,-0.3
 314026,0.,-0.7254135,0.2298562,-0.0000008,-0.0000029,0.000001,0.081689
 6,-0.097177,-0.1019315,-0.0000006,0.4795759,0.0032916,0.0000027,0.0000
 038,0.0000007,-0.1704556,0.0414045,0.405802,0.0000036,-0.1248031,0.062
 3899,0.0000011,-0.0000006,0.0000027,-0.1378679,0.9866714,-0.8555856,-0
 .0000039,-0.8424152,0.1368142,-0.0000018,-0.0000034,-0.0000018,0.05484
 38,-0.1250699,-0.2663904,-0.0000023,0.39295,0.17215,0.0000033,0.000002
 9,0.0000028,-0.1081344,-0.0463105,0.2245532,0.0000019,-0.2105656,-0.66
 23469,-0.0000056,-0.0000018,-0.0000048,-0.0367704,-1.2884243,0.4015123
 ,0.0000005,0.5496853,-0.288077,0.0000017,0.0000013,0.0000013,-0.311381
 8,-0.0933411,-0.0560802,-0.0000011,-0.0405783,0.04003,-0.000001,-0.000
 0008,-0.000001,0.1451703,0.0660557,0.0341946,0.,0.032422,-0.0995684,-0
 .0000018,0.,-0.0000017,0.1416007,-1.1667896,0.7158222,0.0000031,0.6364
 373,-0.5509992,0.,0.0000025,0.0000003,-0.3464723,0.0383783,-0.0220683,
 -0.0000004,-0.0226595,0.1166458,-0.0000002,-0.0000005,-0.0000004,0.135
 7939,0.2868258,-0.1533047,-0.0000012,-0.1052568,0.2348166,-0.0000009,-
 0.0000009,-0.000001,0.3208265,0.3686416,-0.0536661,-0.0000003,-0.11245
 97,0.152566,-0.0000015,-0.0000007,-0.0000014,0.3153382,1.5634304,0.154
 9403,0.0000023,0.1568701,2.0801821,0.0000149,0.0000028,0.000016,0.2876
 447,-0.8015817,0.2682027,0.0000016,0.3171807,-1.1469517,-0.0000063,0.0
 000037,-0.0000077,-0.3429074,-1.0786372,-0.4991389,-0.0000048,-0.45173
 09,-0.7571362,-0.0000035,-0.000006,-0.0000041,-0.3510278,0.2874889,0.1
 34541,0.0000013,0.0707613,0.2763372,-0.0000005,0.0000006,-0.0000008,0.
 3221098\Polar=111.5219808,-4.8367511,126.9342532,0.0001034,0.000614,50
 .2935829\Quadrupole=-0.9301261,5.5619088,-4.6317827,6.5537044,0.000074
 1,0.0000904\PG=C01 [X(C7H6O4)]\NImag=0\\0.68873534,0.00072145,0.668061
 48,0.00000138,0.00000406,0.15331814,-0.12858323,-0.05052663,-0.0000005
 9,0.73340094,0.02514220,-0.30197775,-0.00000189,0.00914943,0.67034750,
 -0.00000002,-0.00000209,-0.06365176,0.00000178,0.00000449,0.11183737,0
 .03323267,0.08265288,0.00000074,-0.29098100,0.06685754,-0.00000015,0.6
 7606392,0.03165377,-0.02603854,-0.00000011,0.12818093,-0.18082751,-0.0
 0000070,-0.01290043,0.73133565,0.00000036,0.,-0.00002671,0.00000030,-0
 .00000084,-0.04652115,0.00000143,0.00000470,0.11697134,-0.01852589,-0.
 03449621,-0.00000031,-0.05927513,0.02298263,0.,-0.25708526,-0.12360741
 ,-0.00000148,0.67442438,-0.03072594,-0.06545958,-0.00000058,-0.0264260
 4,0.07311798,0.00000050,-0.04359307,-0.18763709,-0.00000113,0.00293119
 ,0.70853367,-0.00000028,-0.00000056,-0.00216722,-0.00000036,0.00000059
 ,0.00171600,-0.00000088,-0.00000131,-0.06144392,0.00000149,0.00000426,
 0.14260525,-0.05466818,-0.02198065,-0.00000030,-0.01553721,0.02490344,
 0.00000015,0.02999309,-0.02787112,-0.00000014,-0.12748121,-0.04946943,
 -0.00000053,0.72187950,0.02001935,0.07263521,0.00000059,0.02500120,-0.
 05173710,-0.00000034,-0.07335334,-0.02497714,-0.00000041,0.02446154,-0
 .32292535,-0.00000184,0.02781349,0.70568948,0.,0.00000048,0.00364140,0
 .00000016,-0.00000034,-0.00090964,-0.00000052,-0.00000032,0.00683214,0
 .00000006,-0.00000199,-0.06780960,0.00000160,0.00000435,0.13236819,-0.
 23096260,-0.04251115,-0.00000075,0.02867454,-0.06453974,-0.00000041,-0
 .05788991,-0.00140457,-0.00000018,0.03364593,0.07327350,0.00000066,-0.
 27027462,0.05673443,-0.00000003,0.68357715,-0.09324555,-0.18125266,-0.
 00000109,-0.02306935,-0.02174414,-0.00000027,0.00237632,-0.00248118,-0
 .00000001,0.02476576,-0.03093861,-0.00000020,0.10464068,-0.16626992,-0
 .00000056,-0.00446315,0.62116905,-0.00000110,-0.00000093,-0.06812198,-
 0.00000011,-0.00000039,0.00748042,-0.00000012,-0.00000002,-0.00112839,
 0.00000023,-0.00000010,0.00344655,0.00000034,-0.00000066,-0.05762840,0
 .00000114,0.00000376,0.14120386,-0.24985675,0.11204193,0.00000032,-0.0
 1473815,0.01961710,0.00000009,0.00019645,-0.00212026,-0.00000004,0.003
 83735,-0.00366632,0.,-0.00176142,0.00005047,0.,-0.04814137,0.00755632,
 -0.00000008,0.60499403,0.06044821,-0.15860003,-0.00000076,0.05338231,-
 0.03365989,-0.00000019,-0.01001742,-0.00329102,-0.00000011,0.00214225,
 0.00817625,0.00000007,0.00070400,-0.01218419,-0.00000013,-0.01682311,0
 .02453193,0.00000012,0.11457727,0.43621073,-0.00000006,-0.00000062,-0.
 03905755,0.00000037,-0.00000029,0.00969039,-0.00000010,-0.00000009,0.0
 0715474,0.00000003,0.00000006,-0.00123534,0.,-0.00000012,0.00404955,-0
 .00000027,0.00000016,0.00394148,0.00000229,0.00000337,0.02510190,-0.00
 164300,0.00320184,0.00000001,-0.25846714,-0.11919624,-0.00000157,-0.02
 029576,-0.01570918,-0.00000018,-0.00167155,0.00422312,0.,0.00013056,0.
 00070002,0.,0.00150483,-0.00036173,-0.00000001,0.00392477,0.00075314,0
 .00000003,0.27665458,-0.02892449,-0.01127013,-0.00000020,-0.11900191,-
 0.13016299,-0.00000113,0.01479906,0.01174435,0.00000013,0.00309005,-0.
 00079097,-0.00000005,0.00117653,-0.00087607,0.,0.00128785,-0.00562038,
 -0.00000008,-0.00125679,0.00259528,0.00000005,0.12813795,0.13459171,-0
 .00000025,-0.00000012,0.00357351,-0.00000156,-0.00000112,-0.02938403,0
 .00000006,0.00000005,0.00050124,0.,-0.00000005,0.00690716,0.00000002,0
 .,-0.00099054,0.,-0.00000009,0.00475716,0.00000001,0.00000005,-0.00402
 326,0.00000171,0.00000125,0.02139677,-0.00418693,0.00177299,-0.0000000
 2,0.00472170,0.02837674,0.00000023,-0.06041480,-0.00584710,-0.00000013
 ,0.00426702,-0.02604372,-0.00000020,-0.00478494,-0.00300202,-0.0000000
 5,-0.00131492,0.00061296,0.,-0.00034632,0.00160431,0.00000001,0.001059
 21,-0.00038951,0.,0.05792753,0.00257916,0.00174252,-0.00000004,-0.0018
 9952,-0.01259592,-0.00000011,-0.00528638,-0.32984801,-0.00000230,0.005
 72745,-0.01445560,-0.00000013,-0.00374269,0.00024561,-0.00000005,-0.00
 018044,0.00063506,0.00000001,0.00037538,-0.00106669,0.,0.00013226,0.00
 091980,0.00000004,0.00436545,0.35237704,-0.00000001,-0.00000003,0.0076
 1318,0.,-0.00000004,0.00117727,-0.00000013,-0.00000230,-0.03214699,0.0
 0000005,-0.00000021,0.00447042,-0.00000006,-0.00000005,0.00517567,0.,0
 .00000001,-0.00081418,0.,0.,0.00004100,0.00000002,0.00000004,-0.003612
 29,0.00000013,0.00000255,0.02210360,0.00491387,0.00001974,0.00000002,-
 0.00006817,-0.00488228,-0.00000006,-0.05014282,0.02606273,0.00000004,-
 0.25315546,0.04630448,-0.00000024,-0.00209838,0.01504826,0.00000008,-0
 .00387470,-0.00201180,-0.00000004,-0.00779205,0.00360992,0.,-0.0017429
 6,0.00097649,0.,0.00334503,-0.00015042,0.00000002,0.36372883,0.0000611
 7,0.00750659,0.00000006,0.00189744,-0.00904580,-0.00000011,-0.01472169
 ,0.01226171,0.,0.09888931,-0.13900388,-0.00000049,0.05412956,-0.035397
 80,-0.00000017,-0.00797132,-0.00291104,-0.00000006,0.00533788,-0.00264
 863,0.,-0.00055249,0.00028287,0.,-0.00083065,0.00291360,0.00000005,-0.
 03855120,0.66157575,0.00000002,0.00000007,-0.00133490,0.,-0.00000013,0
 .00648948,-0.00000027,0.00000012,0.00654432,0.00000013,-0.00000062,-0.
 03608141,0.00000038,-0.00000028,0.00652366,-0.00000009,-0.00000006,0.0
 0435377,0.00000002,0.,-0.00036678,-0.00000001,0.,0.00050283,0.00000001
 ,0.00000005,-0.00360687,0.00000063,0.00000447,0.02176250,-0.00142397,0
 .00405558,0.00000001,0.00032805,0.00027301,0.,0.00061840,0.00071912,0.
 ,0.00344722,0.00136433,0.,-0.27520916,-0.12314619,-0.00000149,-0.01887
 346,-0.01327929,-0.00000015,-0.00105959,-0.00098173,-0.00000001,-0.000
 03028,-0.00005909,0.,0.00031827,0.00020777,0.,0.00060966,-0.00006831,0
 .,0.29075927,0.00287089,-0.00145788,-0.00000005,0.00126470,-0.00073414
 ,0.,0.00074760,-0.00565569,-0.00000008,-0.02864176,-0.01043265,-0.0000
 0020,-0.12483696,-0.12830604,-0.00000098,0.01379065,0.01191916,0.00000
 010,0.00108082,0.00053319,0.,-0.00004973,0.00001609,0.,-0.00124588,-0.
 00063884,0.,-0.00032442,0.00251722,0.00000004,0.13407835,0.13514577,0.
 ,-0.00000006,0.00564268,0.,0.,-0.00050834,0.,-0.00000007,0.00497053,-0
 .00000023,-0.00000015,0.00716235,-0.00000153,-0.00000096,-0.03721852,0
 .00000008,0.00000002,0.00269970,0.,0.,0.00041834,0.,0.,-0.00027823,0.,
 0.,-0.00039166,0.00000001,0.00000005,-0.00358520,0.00000164,0.00000115
 ,0.02505882,-0.00005693,-0.00049632,0.,-0.00066753,0.00021474,0.,0.002
 27701,0.00239501,0.00000003,-0.00024445,0.04577028,0.00000034,-0.00660
 025,0.00261776,0.,0.00133014,0.00059709,0.,0.00002827,-0.00018300,0.,0
 .00018985,-0.00004326,0.,-0.00088058,-0.00187344,-0.00000002,-0.054430
 70,-0.09852427,-0.00000084,0.00009426,0.00011559,0.,0.05938604,0.00062
 010,0.00000519,0.,-0.00022352,-0.00072076,0.,-0.00394543,0.00525241,0.
 00000003,-0.00303561,-0.02529689,-0.00000017,0.00399351,0.00107350,0.,
 -0.00107938,-0.00062975,-0.00000002,-0.00093656,0.00045906,0.,-0.00027
 431,0.00011954,0.,0.00088619,-0.00009592,0.,-0.04515102,-0.49670614,-0
 .00000364,-0.00003460,0.00045445,0.,0.04882851,0.51628360,0.,0.,0.0001
 7301,0.,0.,-0.00060298,-0.00000002,0.00000005,-0.00024252,0.,-0.000000
 04,-0.00351003,0.00000001,0.,0.00147503,-0.00000001,-0.00000002,0.0017
 3734,0.,0.,-0.00009135,0.,0.,-0.00010078,0.,-0.00000001,0.00052796,-0.
 00000047,-0.00000378,-0.00147593,0.,0.,-0.00064858,0.00000049,0.000003
 79,0.00281844,-0.04217223,-0.02656491,-0.00000030,0.00532262,-0.003372
 98,0.,-0.00130113,-0.00006354,0.,0.00029747,0.00144091,0.00000001,-0.0
 0025178,-0.00271501,-0.00000003,-0.00220720,0.00660866,0.00000004,-0.2
 8883107,-0.20306264,-0.00000222,0.00032301,0.00172163,0.00000001,0.000
 24771,-0.00023747,0.,0.00094903,-0.00055434,0.,-0.00028567,0.00029915,
 0.,-0.00010666,0.00013484,0.,0.32781326,0.02199418,0.01258381,0.000000
 17,0.00585452,0.00160908,0.00000004,-0.00029890,-0.00068001,0.,-0.0001
 4993,0.00021393,0.,0.00017425,0.00023161,0.,0.00462025,-0.00082041,-0.
 00000001,-0.25733829,-0.25332161,-0.00000248,-0.00139328,-0.00118354,-
 0.00000002,0.00000992,0.00002536,0.,0.00025595,-0.00038586,0.,0.000176
 67,-0.00007119,0.,0.00010393,0.00002560,0.,0.22679967,0.24434384,0.000
 00006,0.00000005,-0.00308867,0.00000006,0.00000001,-0.00092659,0.,0.,-
 0.00078578,0.,0.,0.00019760,0.,-0.00000001,0.00122894,0.00000002,0.,0.
 00253695,-0.00000262,-0.00000235,-0.00427289,-0.00000001,-0.00000001,0
 .00071312,0.,0.,-0.00002910,0.,0.,-0.00003750,0.,0.,0.00002210,0.,0.,0
 .00001180,0.00000250,0.00000234,0.00468416,0.01588848,-0.03295854,-0.0
 0000021,-0.00537360,-0.00357874,-0.00000005,-0.00315960,0.00032537,0.,
 -0.00417587,0.00294837,0.,0.00856267,0.02964834,0.00000022,-0.10012737
 ,-0.02285508,-0.00000021,-0.00420404,0.00332396,0.00000002,-0.00025802
 ,-0.00158918,-0.00000002,-0.00029059,-0.00003158,0.,-0.00160384,0.0021
 7225,0.00000001,-0.00232040,0.00181515,0.00000002,-0.00022388,0.000156
 09,0.,0.00015983,0.00183533,0.00000002,0.76377854,-0.03125553,-0.00852
 345,-0.00000015,-0.00079830,-0.00307873,-0.00000009,-0.00651046,0.0020
 7966,0.,0.00947919,0.00894835,0.00000002,0.02007666,-0.02744278,-0.000
 00018,-0.00817607,-0.17914212,-0.00000064,0.01754345,-0.00824816,0.000
 00002,0.00094671,0.00062934,0.,-0.00034143,0.00018278,0.,-0.00496791,0
 .00183311,0.,-0.00203127,0.00215444,0.00000006,0.00087566,-0.00050456,
 0.,-0.00145444,-0.00169478,-0.00000002,-0.20153220,0.74172517,-0.00000
 028,-0.00000017,0.00214613,-0.00000003,-0.00000007,0.00594460,-0.00000
 006,0.00000001,-0.00092893,0.00000005,0.00000003,0.00794411,0.00000020
 ,-0.00000015,-0.00003433,-0.00000013,-0.00000084,-0.08015774,0.0000001
 6,-0.00000004,-0.00321901,0.,0.,0.00016597,0.,0.,-0.00069918,-0.000000
 05,0.00000002,0.00043410,-0.00000001,0.00000005,-0.00426346,0.,0.,-0.0
 0000177,-0.00000001,-0.00000001,-0.00022565,-0.00000210,0.00000550,0.2
 0968384,-0.01335815,0.00488796,0.,0.00124588,-0.00167772,-0.00000002,-
 0.00203077,0.00013239,0.,0.00244686,0.00313375,0.00000003,0.00311660,-
 0.00335991,-0.00000002,0.00013392,0.03136152,0.00000030,0.00431130,-0.
 00859897,-0.00000006,0.00033749,0.00032334,0.,0.00007564,0.00004008,0.
 ,-0.00020050,-0.00003720,0.,0.00083882,-0.00101304,0.,0.00009365,-0.00
 005175,0.,-0.00025243,-0.00216940,-0.00000002,-0.46745896,0.29093519,0
 .00000327,0.57804554,0.00955632,-0.00071351,0.00000004,-0.00041204,0.0
 0213610,0.00000002,0.00313706,-0.00060851,0.,-0.00180773,-0.00290400,0
 .,-0.00802467,-0.00424147,-0.00000007,0.04320854,-0.03949076,-0.000000
 60,-0.01057417,-0.00087989,-0.00000006,-0.00036490,-0.00018415,0.,0.00
 007036,-0.00016226,0.,0.00218261,-0.00189955,0.,0.00008681,0.00018276,
 -0.00000001,-0.00017944,0.00013008,0.,0.00072721,-0.00104214,-0.000000
 01,0.28930792,-0.35473216,-0.00000307,-0.34646105,0.36645790,0.0000000
 9,0.00000002,-0.00123483,0.,0.00000002,-0.00073079,0.00000002,0.,0.000
 20419,0.,0.,-0.00164519,-0.00000009,-0.00000008,0.00258413,0.00000042,
 -0.00000048,0.02056987,-0.00000011,-0.00000003,0.00150179,0.,0.,-0.000
 00220,0.,0.,0.00007712,0.00000002,-0.00000002,-0.00016876,0.,0.,0.0007
 7629,0.,0.,-0.00006693,0.,-0.00000002,0.00028502,0.00000329,-0.0000031
 7,-0.07749282,-0.00000378,0.00000361,0.03165886,0.00186010,0.00165706,
 0.00000001,0.00041921,-0.00007011,0.,0.00119963,-0.00016766,0.,-0.0015
 4855,-0.00148092,-0.00000001,-0.00446971,0.00238835,0.00000002,-0.0082
 7644,-0.01823848,-0.00000023,-0.00068721,-0.00103748,-0.00000002,-0.00
 002045,-0.00011151,0.,0.00022299,-0.00006955,0.,0.00188970,-0.00085069
 ,0.,0.00146953,0.00017814,0.,-0.00023180,0.00014218,0.,0.00033471,-0.0
 0057571,0.,-0.20182088,-0.02522637,-0.00000038,-0.10931292,0.01136900,
 0.00000004,0.36988905,0.00829701,-0.00642842,-0.00000004,-0.00203488,-
 0.00091102,0.,0.00019479,-0.00073292,0.,-0.00308001,0.00071442,0.,-0.0
 0176299,-0.00615410,-0.00000005,-0.04316841,-0.02870194,-0.00000044,-0
 .00252987,0.00130669,0.,-0.00020617,-0.00076084,0.,0.00000644,-0.00020
 434,0.,0.00179924,-0.00100977,0.,-0.00128895,-0.00560376,-0.00000005,-
 0.00026765,0.00018806,0.,0.00037798,0.00011081,0.,-0.05857234,-0.14501
 798,-0.00000091,0.02350985,0.03619253,0.00000009,0.00378912,0.63505445
 ,0.00000007,-0.00000008,0.00176756,-0.00000002,0.,-0.00073988,0.,0.,-0
 .00004110,-0.00000003,0.,-0.00074707,-0.00000003,-0.00000006,0.0008973
 7,-0.00000041,-0.00000033,0.01127781,-0.00000002,0.,0.00032543,0.,0.,-
 0.00008543,0.,0.,0.00017118,0.00000002,-0.00000001,0.00008986,0.,-0.00
 000005,0.00043691,0.,0.,-0.00003846,0.,0.,-0.00033018,-0.00000088,-0.0
 0000090,-0.06332812,0.00000021,0.00000006,0.02941191,0.00000033,0.0000
 0660,0.03507463,0.00080739,-0.00147702,0.,-0.00042176,-0.00019902,0.,-
 0.00028012,0.00022195,0.,0.00079714,0.00001553,0.,-0.00054556,0.001093
 26,0.,-0.00692392,-0.00099487,-0.00000003,0.00012581,0.00015898,0.,0.0
 0000486,-0.00013715,0.,0.00003399,0.00004392,0.,-0.00032654,0.00017455
 ,0.,0.00071906,-0.00012925,0.,0.00004355,-0.00002926,0.,-0.00003948,0.
 00010084,0.,0.00262752,-0.05756286,-0.00000063,0.00196805,0.00817816,0
 .00000011,-0.05091695,0.07493686,0.00000076,0.05232695,0.00018768,-0.0
 0081284,-0.00000001,-0.00033836,-0.00001490,0.,-0.00013811,0.00010386,
 0.,0.00034929,0.00014003,0.,0.00007640,0.00063655,0.,-0.00259787,0.001
 74773,-0.00000004,0.00024164,0.00008698,0.,0.00001301,-0.00004990,0.,-
 0.00000507,0.00002580,0.,-0.00022036,0.00011764,0.,-0.00007219,-0.0000
 2289,0.,0.00004881,-0.00003744,0.,-0.00008474,0.00005549,0.,-0.0104151
 0,-0.02916814,-0.00000035,0.00904495,0.00175904,0.00000008,0.02830464,
 -0.47804186,-0.00000523,-0.02439463,0.50347487,0.,-0.00000001,0.000807
 99,0.,0.,-0.00036039,0.,0.,0.00008698,0.,0.,0.00019034,0.,0.00000002,-
 0.00018505,-0.00000003,0.,0.00384579,0.,0.,0.00004154,0.,0.,-0.0000409
 9,0.,0.,-0.00005712,0.,0.,-0.00004317,0.,0.,-0.00029373,0.,0.,0.000035
 74,0.,0.,0.00001666,-0.00000010,-0.00000047,0.00403225,0.00000010,0.00
 000010,-0.00572767,0.00000024,-0.00000518,-0.01414243,-0.00000021,0.00
 000555,0.01179327\\-0.00002824,0.00003975,-0.00000006,-0.00002177,-0.0
 0003945,0.00000006,0.00003619,0.00001907,0.,-0.00003857,-0.00004104,0.
 ,0.00001373,0.00010309,0.00000003,0.00008589,-0.00008361,-0.00000032,-
 0.00002003,0.00000336,0.,0.00000617,-0.00000674,0.,0.00000029,0.000001
 34,0.,-0.00000980,0.00000475,0.,-0.00001481,-0.00001255,0.,0.00000237,
 -0.00000332,0.,0.00000516,-0.00000109,0.,-0.00019863,0.00002084,0.0000
 0084,0.00008987,-0.00002738,-0.00000030,0.00010602,0.00003378,-0.00000
 021,-0.00001385,-0.00001082,-0.00000003\\\@


 THE ONLY DIFFERENCE BETWEEN ECCENTRICS AND JOGGERS
 IS THAT JOGGERS WEAR SWEATBANDS WHEN THEY RUN IN THE RAIN.
 Job cpu time:       0 days  0 hours 30 minutes 59.4 seconds.
 Elapsed time:       0 days  0 hours 31 minutes  2.6 seconds.
 File lengths (MBytes):  RWF=    216 Int=      0 D2E=      0 Chk=     12 Scr=      1
 Normal termination of Gaussian 16 at Tue Jan 21 11:53:18 2025.
