 Entering Gaussian System, Link 0=g16
 Initial command:
 /sw/cluster/pub/apps//g16/l1.exe "/data/mmaximo/28012/Gau-913731.inp" -scrdir="/data/mmaximo/28012/"
 Entering Link 1 = /sw/cluster/pub/apps//g16/l1.exe PID=    913732.
  
 Copyright (c) 1988,1990,1992,1993,1995,1998,2003,2009,2016,
            Gaussian, Inc.  All Rights Reserved.
  
 This is part of the Gaussian(R) 16 program.  It is based on
 the Gaussian(R) 09 system (copyright 2009, Gaussian, Inc.),
 the Gaussian(R) 03 system (copyright 2003, Gaussian, Inc.),
 the Gaussian(R) 98 system (copyright 1998, Gaussian, Inc.),
 the Gaussian(R) 94 system (copyright 1995, Gaussian, Inc.),
 the Gaussian 92(TM) system (copyright 1992, Gaussian, Inc.),
 the Gaussian 90(TM) system (copyright 1990, Gaussian, Inc.),
 the Gaussian 88(TM) system (copyright 1988, Gaussian, Inc.),
 the Gaussian 86(TM) system (copyright 1986, Carnegie Mellon
 University), and the Gaussian 82(TM) system (copyright 1983,
 Carnegie Mellon University). Gaussian is a federally registered
 trademark of Gaussian, Inc.
  
 This software contains proprietary and confidential information,
 including trade secrets, belonging to Gaussian, Inc.
  
 This software is provided under written license and may be
 used, copied, transmitted, or stored only in accord with that
 written license.
  
 The following legend is applicable only to US Government
 contracts under FAR:
  
                    RESTRICTED RIGHTS LEGEND
  
 Use, reproduction and disclosure by the US Government is
 subject to restrictions as set forth in subparagraphs (a)
 and (c) of the Commercial Computer Software - Restricted
 Rights clause in FAR 52.227-19.
  
 Gaussian, Inc.
 340 Quinnipiac St., Bldg. 40, Wallingford CT 06492
  
  
 ---------------------------------------------------------------
 Warning -- This program may not be used in any manner that
 competes with the business of Gaussian, Inc. or will provide
 assistance to any competitor of Gaussian, Inc.  The licensee
 of this program is prohibited from giving any competitor of
 Gaussian, Inc. access to this program.  By using this program,
 the user acknowledges that Gaussian, Inc. is engaged in the
 business of creating and licensing software in the field of
 computational chemistry and represents and warrants to the
 licensee that it is not a competitor of Gaussian, Inc. and that
 it will not use this program in any manner prohibited above.
 ---------------------------------------------------------------
  

 Cite this work as:
 Gaussian 16, Revision A.03,
 M. J. Frisch, G. W. Trucks, H. B. Schlegel, G. E. Scuseria, 
 M. A. Robb, J. R. Cheeseman, G. Scalmani, V. Barone, 
 G. A. Petersson, H. Nakatsuji, X. Li, M. Caricato, A. V. Marenich, 
 J. Bloino, B. G. Janesko, R. Gomperts, B. Mennucci, H. P. Hratchian, 
 J. V. Ortiz, A. F. Izmaylov, J. L. Sonnenberg, D. Williams-Young, 
 F. Ding, F. Lipparini, F. Egidi, J. Goings, B. Peng, A. Petrone, 
 T. Henderson, D. Ranasinghe, V. G. Zakrzewski, J. Gao, N. Rega, 
 G. Zheng, W. Liang, M. Hada, M. Ehara, K. Toyota, R. Fukuda, 
 J. Hasegawa, M. Ishida, T. Nakajima, Y. Honda, O. Kitao, H. Nakai, 
 T. Vreven, K. Throssell, J. A. Montgomery, Jr., J. E. Peralta, 
 F. Ogliaro, M. J. Bearpark, J. J. Heyd, E. N. Brothers, K. N. Kudin, 
 V. N. Staroverov, T. A. Keith, R. Kobayashi, J. Normand, 
 K. Raghavachari, A. P. Rendell, J. C. Burant, S. S. Iyengar, 
 J. Tomasi, M. Cossi, J. M. Millam, M. Klene, C. Adamo, R. Cammi, 
 J. W. Ochterski, R. L. Martin, K. Morokuma, O. Farkas, 
 J. B. Foresman, and D. J. Fox, Gaussian, Inc., Wallingford CT, 2016.
 
 ******************************************
 Gaussian 16:  ES64L-G16RevA.03 25-Dec-2016
                20-Jan-2025 
 ******************************************
 %chk=C6H5O-.chk
 -------------------------
 # opt freq b3lyp def2tzvp
 -------------------------
 1/18=20,19=15,26=3,38=1/1,3;
 2/9=110,12=2,17=6,18=5,40=1/2;
 3/5=44,7=101,11=2,25=1,30=1,71=1,74=-5/1,2,3;
 4//1;
 5/5=2,38=5/2;
 6/7=2,8=2,9=2,10=2,28=1/1;
 7//1,2,3,16;
 1/18=20,19=15,26=3/3(2);
 2/9=110/2;
 99//99;
 2/9=110/2;
 3/5=44,7=101,11=2,25=1,30=1,71=1,74=-5/1,2,3;
 4/5=5,16=3,69=1/1;
 5/5=2,38=5/2;
 7//1,2,3,16;
 1/18=20,19=15,26=3/3(-5);
 2/9=110/2;
 6/7=2,8=2,9=2,10=2,19=2,28=1/1;
 99/9=1/99;
 ---
 opt
 ---
 Symbolic Z-matrix:
 Charge = -1 Multiplicity = 1
 C                     0.03405  -1.77627   0.04254 
 C                     1.22802  -1.04281   0.02268 
 C                     1.19086   0.31159  -0.00519 
 C                    -0.04154   0.97871  -0.01416 
 C                    -1.23551   0.24524   0.0057 
 C                    -1.19835  -1.10916   0.03357 
 H                     2.16898  -1.55217   0.02953 
 H                     2.10248   0.87161  -0.02035 
 H                    -2.17647   0.7546   -0.00115 
 H                    -2.10997  -1.66918   0.04873 
 O                    -0.07605   2.23637  -0.04004 
 C                     0.07628  -3.31537   0.07421 
 O                    -0.99585  -3.97399   0.09204 
 O                     1.33383  -3.9961    0.08336 
 H                     1.24031  -4.84692  -0.35133 
 

 GradGradGradGradGradGradGradGradGradGradGradGradGradGradGradGradGradGrad
 Berny optimization.
 Initialization pass.
                           ----------------------------
                           !    Initial Parameters    !
                           ! (Angstroms and Degrees)  !
 --------------------------                            --------------------------
 ! Name  Definition              Value          Derivative Info.                !
 --------------------------------------------------------------------------------
 ! R1    R(1,2)                  1.4014         estimate D2E/DX2                !
 ! R2    R(1,6)                  1.4014         estimate D2E/DX2                !
 ! R3    R(1,12)                 1.54           estimate D2E/DX2                !
 ! R4    R(2,3)                  1.3552         estimate D2E/DX2                !
 ! R5    R(2,7)                  1.07           estimate D2E/DX2                !
 ! R6    R(3,4)                  1.4014         estimate D2E/DX2                !
 ! R7    R(3,8)                  1.07           estimate D2E/DX2                !
 ! R8    R(4,5)                  1.4014         estimate D2E/DX2                !
 ! R9    R(4,11)                 1.2584         estimate D2E/DX2                !
 ! R10   R(5,6)                  1.3552         estimate D2E/DX2                !
 ! R11   R(5,9)                  1.07           estimate D2E/DX2                !
 ! R12   R(6,10)                 1.07           estimate D2E/DX2                !
 ! R13   R(12,13)                1.2584         estimate D2E/DX2                !
 ! R14   R(12,14)                1.43           estimate D2E/DX2                !
 ! R15   R(14,15)                0.96           estimate D2E/DX2                !
 ! A1    A(2,1,6)              120.0            estimate D2E/DX2                !
 ! A2    A(2,1,12)             120.0            estimate D2E/DX2                !
 ! A3    A(6,1,12)             120.0            estimate D2E/DX2                !
 ! A4    A(1,2,3)              120.0            estimate D2E/DX2                !
 ! A5    A(1,2,7)              120.0            estimate D2E/DX2                !
 ! A6    A(3,2,7)              120.0            estimate D2E/DX2                !
 ! A7    A(2,3,4)              120.0            estimate D2E/DX2                !
 ! A8    A(2,3,8)              120.0            estimate D2E/DX2                !
 ! A9    A(4,3,8)              120.0            estimate D2E/DX2                !
 ! A10   A(3,4,5)              120.0            estimate D2E/DX2                !
 ! A11   A(3,4,11)             120.0            estimate D2E/DX2                !
 ! A12   A(5,4,11)             120.0            estimate D2E/DX2                !
 ! A13   A(4,5,6)              120.0            estimate D2E/DX2                !
 ! A14   A(4,5,9)              120.0            estimate D2E/DX2                !
 ! A15   A(6,5,9)              120.0            estimate D2E/DX2                !
 ! A16   A(1,6,5)              120.0            estimate D2E/DX2                !
 ! A17   A(1,6,10)             120.0            estimate D2E/DX2                !
 ! A18   A(5,6,10)             120.0            estimate D2E/DX2                !
 ! A19   A(1,12,13)            120.0            estimate D2E/DX2                !
 ! A20   A(1,12,14)            120.0            estimate D2E/DX2                !
 ! A21   A(13,12,14)           120.0            estimate D2E/DX2                !
 ! A22   A(12,14,15)           109.4712         estimate D2E/DX2                !
 ! D1    D(6,1,2,3)             -0.0002         estimate D2E/DX2                !
 ! D2    D(6,1,2,7)            179.9999         estimate D2E/DX2                !
 ! D3    D(12,1,2,3)           179.9998         estimate D2E/DX2                !
 ! D4    D(12,1,2,7)             0.0            estimate D2E/DX2                !
 ! D5    D(2,1,6,5)              0.0001         estimate D2E/DX2                !
 ! D6    D(2,1,6,10)          -180.0            estimate D2E/DX2                !
 ! D7    D(12,1,6,5)          -180.0            estimate D2E/DX2                !
 ! D8    D(12,1,6,10)            0.0            estimate D2E/DX2                !
 ! D9    D(2,1,12,13)          179.9999         estimate D2E/DX2                !
 ! D10   D(2,1,12,14)           -0.0001         estimate D2E/DX2                !
 ! D11   D(6,1,12,13)           -0.0001         estimate D2E/DX2                !
 ! D12   D(6,1,12,14)          179.9999         estimate D2E/DX2                !
 ! D13   D(1,2,3,4)              0.0002         estimate D2E/DX2                !
 ! D14   D(1,2,3,8)           -179.9999         estimate D2E/DX2                !
 ! D15   D(7,2,3,4)           -180.0            estimate D2E/DX2                !
 ! D16   D(7,2,3,8)              0.0            estimate D2E/DX2                !
 ! D17   D(2,3,4,5)              0.0            estimate D2E/DX2                !
 ! D18   D(2,3,4,11)           180.0            estimate D2E/DX2                !
 ! D19   D(8,3,4,5)           -180.0            estimate D2E/DX2                !
 ! D20   D(8,3,4,11)             0.0            estimate D2E/DX2                !
 ! D21   D(3,4,5,6)             -0.0001         estimate D2E/DX2                !
 ! D22   D(3,4,5,9)           -179.9999         estimate D2E/DX2                !
 ! D23   D(11,4,5,6)           179.9999         estimate D2E/DX2                !
 ! D24   D(11,4,5,9)             0.0001         estimate D2E/DX2                !
 ! D25   D(4,5,6,1)              0.0001         estimate D2E/DX2                !
 ! D26   D(4,5,6,10)          -179.9999         estimate D2E/DX2                !
 ! D27   D(9,5,6,1)            179.9999         estimate D2E/DX2                !
 ! D28   D(9,5,6,10)             0.0            estimate D2E/DX2                !
 ! D29   D(1,12,14,15)        -150.0            estimate D2E/DX2                !
 ! D30   D(13,12,14,15)         30.0            estimate D2E/DX2                !
 --------------------------------------------------------------------------------
 Trust Radius=3.00D-01 FncErr=1.00D-07 GrdErr=1.00D-06 EigMax=2.50D+02 EigMin=1.00D-04
 Number of steps in this run=     77 maximum allowed number of steps=    100.
 GradGradGradGradGradGradGradGradGradGradGradGradGradGradGradGradGradGrad

                          Input orientation:                          
 ---------------------------------------------------------------------
 Center     Atomic      Atomic             Coordinates (Angstroms)
 Number     Number       Type             X           Y           Z
 ---------------------------------------------------------------------
      1          6           0        0.034051   -1.776275    0.042538
      2          6           0        1.228019   -1.042811    0.022683
      3          6           0        1.190857    0.311592   -0.005191
      4          6           0       -0.041540    0.978705   -0.014158
      5          6           0       -1.235508    0.245242    0.005699
      6          6           0       -1.198346   -1.109162    0.033572
      7          1           0        2.168981   -1.552167    0.029530
      8          1           0        2.102478    0.871608   -0.020353
      9          1           0       -2.176470    0.754598   -0.001148
     10          1           0       -2.109967   -1.669177    0.048731
     11          8           0       -0.076048    2.236366   -0.040041
     12          6           0        0.076281   -3.315370    0.074209
     13          8           0       -0.995854   -3.973990    0.092041
     14          8           0        1.333828   -3.996098    0.083356
     15          1           0        1.240309   -4.846924   -0.351325
 ---------------------------------------------------------------------
                    Distance matrix (angstroms):
                    1          2          3          4          5
     1  C    0.000000
     2  C    1.401400   0.000000
     3  C    2.387397   1.355200   0.000000
     4  C    2.756600   2.387397   1.401400   0.000000
     5  C    2.387397   2.779988   2.427296   1.401400   0.000000
     6  C    1.401400   2.427296   2.779988   2.387397   1.355200
     7  H    2.146700   1.070000   2.105120   3.360599   3.849908
     8  H    3.360599   2.105120   1.070000   2.146700   3.396345
     9  H    3.360599   3.849908   3.396345   2.146700   1.070000
    10  H    2.146700   3.396345   3.849908   3.360599   2.105120
    11  O    4.015000   3.529522   2.304564   1.258400   2.304564
    12  C    1.540000   2.548270   3.795186   4.296600   3.795186
    13  O    2.427572   3.679977   4.812211   5.044917   4.226915
    14  O    2.572683   2.955804   4.310971   5.162345   4.959484
    15  H    3.322510   3.822474   5.170353   5.974511   5.673384
                    6          7          8          9         10
     6  C    0.000000
     7  H    3.396345   0.000000
     8  H    3.849908   2.425200   0.000000
     9  H    2.105120   4.919863   4.280590   0.000000
    10  H    1.070000   4.280590   4.919863   2.425200   0.000000
    11  O    3.529522   4.404313   2.570783   2.570783   4.404313
    12  C    2.548270   2.736837   4.652440   4.652440   2.736837
    13  O    2.872571   3.985638   5.752574   4.874636   2.560329
    14  O    3.840414   2.583249   4.929111   5.907490   4.156378
    15  H    4.479514   3.444257   5.792623   6.570696   4.634918
                   11         12         13         14         15
    11  O    0.000000
    12  C    5.555000   0.000000
    13  O    6.279491   1.258400   0.000000
    14  O    6.391133   1.430000   2.329803   0.000000
    15  H    7.211289   1.970203   2.441108   0.960000   0.000000
 Stoichiometry    C7H5O3(1-)
 Framework group  C1[X(C7H5O3)]
 Deg. of freedom    39
 Full point group                 C1      NOp   1
 Largest Abelian subgroup         C1      NOp   1
 Largest concise Abelian subgroup C1      NOp   1
                         Standard orientation:                         
 ---------------------------------------------------------------------
 Center     Atomic      Atomic             Coordinates (Angstroms)
 Number     Number       Type             X           Y           Z
 ---------------------------------------------------------------------
      1          6           0        0.555268    0.050960   -0.008931
      2          6           0       -0.105027   -1.185130   -0.012668
      3          6           0       -1.459472   -1.229853   -0.005972
      4          6           0       -2.199797   -0.040009    0.004687
      5          6           0       -1.539503    1.196081    0.008421
      6          6           0       -0.185058    1.240803    0.001727
      7          1           0        0.460228   -2.093602   -0.020807
      8          1           0       -1.963622   -2.173635   -0.008823
      9          1           0       -2.104757    2.104553    0.016561
     10          1           0        0.319092    2.184586    0.004580
     11          8           0       -3.457497   -0.081537    0.010905
     12          6           0        2.094410    0.101781   -0.016538
     13          8           0        2.687327    1.211739   -0.013185
     14          8           0        2.849844   -1.112345   -0.027411
     15          1           0        3.686737   -0.972545    0.421661
 ---------------------------------------------------------------------
 Rotational constants (GHZ):           3.7779287           0.8045204           0.6636206
 Standard basis: def2TZVP (5D, 7F)
 There are   390 symmetry adapted cartesian basis functions of A   symmetry.
 There are   340 symmetry adapted basis functions of A   symmetry.
   340 basis functions,   550 primitive gaussians,   390 cartesian basis functions
    36 alpha electrons       36 beta electrons
       nuclear repulsion energy       472.7292747342 Hartrees.
 NAtoms=   15 NActive=   15 NUniq=   15 SFac= 1.00D+00 NAtFMM=   60 NAOKFM=F Big=F
 Integral buffers will be    131072 words long.
 Raffenetti 2 integral format.
 Two-electron integral symmetry is turned on.
 One-electron integrals computed using PRISM.
   1 Symmetry operations used in ECPInt.
 ECPInt:  NShTT=    8515 NPrTT=   26800 LenC2=    8108 LenP2D=   19807.
 LDataN:  DoStor=T MaxTD1= 6 Len=  172
 NBasis=   340 RedAO= T EigKep=  9.15D-06  NBF=   340
 NBsUse=   340 1.00D-06 EigRej= -1.00D+00 NBFU=   340
 ExpMin= 9.52D-02 ExpMax= 2.70D+04 ExpMxC= 9.22D+02 IAcc=3 IRadAn=         5 AccDes= 0.00D+00
 Harris functional with IExCor=  402 and IRadAn=       5 diagonalized for initial guess.
 HarFok:  IExCor=  402 AccDes= 0.00D+00 IRadAn=         5 IDoV= 1 UseB2=F ITyADJ=14
 ICtDFT=  3500011 ScaDFX=  1.000000  1.000000  1.000000  1.000000
 FoFCou: FMM=F IPFlag=           0 FMFlag=      100000 FMFlg1=           0
         NFxFlg=           0 DoJE=T BraDBF=F KetDBF=T FulRan=T
         wScrn=  0.000000 ICntrl=       500 IOpCl=  0 I1Cent=   200000004 NGrid=           0
         NMat0=    1 NMatS0=      1 NMatT0=    0 NMatD0=    1 NMtDS0=    0 NMtDT0=    0
 Petite list used in FoFCou.
 Requested convergence on RMS density matrix=1.00D-08 within 128 cycles.
 Requested convergence on MAX density matrix=1.00D-06.
 Requested convergence on             energy=1.00D-06.
 No special actions if energy rises.
 Integral accuracy reduced to 1.0D-05 until final iterations.
 EnCoef did     2 forward-backward iterations
 EnCoef did     3 forward-backward iterations
 Initial convergence to 1.0D-05 achieved.  Increase integral accuracy.
 SCF Done:  E(RB3LYP) =  -495.684319949     A.U. after   20 cycles
            NFock= 20  Conv=0.91D-08     -V/T= 2.0044

 **********************************************************************

            Population analysis using the SCF density.

 **********************************************************************

 Orbital symmetries:
       Occupied  (A) (A) (A) (A) (A) (A) (A) (A) (A) (A) (A) (A)
                 (A) (A) (A) (A) (A) (A) (A) (A) (A) (A) (A) (A)
                 (A) (A) (A) (A) (A) (A) (A) (A) (A) (A) (A) (A)
       Virtual   (A) (A) (A) (A) (A) (A) (A) (A) (A) (A) (A) (A)
                 (A) (A) (A) (A) (A) (A) (A) (A) (A) (A) (A) (A)
                 (A) (A) (A) (A) (A) (A) (A) (A) (A) (A) (A) (A)
                 (A) (A) (A) (A) (A) (A) (A) (A) (A) (A) (A) (A)
                 (A) (A) (A) (A) (A) (A) (A) (A) (A) (A) (A) (A)
                 (A) (A) (A) (A) (A) (A) (A) (A) (A) (A) (A) (A)
                 (A) (A) (A) (A) (A) (A) (A) (A) (A) (A) (A) (A)
                 (A) (A) (A) (A) (A) (A) (A) (A) (A) (A) (A) (A)
                 (A) (A) (A) (A) (A) (A) (A) (A) (A) (A) (A) (A)
                 (A) (A) (A) (A) (A) (A) (A) (A) (A) (A) (A) (A)
                 (A) (A) (A) (A) (A) (A) (A) (A) (A) (A) (A) (A)
                 (A) (A) (A) (A) (A) (A) (A) (A) (A) (A) (A) (A)
                 (A) (A) (A) (A) (A) (A) (A) (A) (A) (A) (A) (A)
                 (A) (A) (A) (A) (A) (A) (A) (A) (A) (A) (A) (A)
                 (A) (A) (A) (A) (A) (A) (A) (A) (A) (A) (A) (A)
                 (A) (A) (A) (A) (A) (A) (A) (A) (A) (A) (A) (A)
                 (A) (A) (A) (A) (A) (A) (A) (A) (A) (A) (A) (A)
                 (A) (A) (A) (A) (A) (A) (A) (A) (A) (A) (A) (A)
                 (A) (A) (A) (A) (A) (A) (A) (A) (A) (A) (A) (A)
                 (A) (A) (A) (A) (A) (A) (A) (A) (A) (A) (A) (A)
                 (A) (A) (A) (A) (A) (A) (A) (A) (A) (A) (A) (A)
                 (A) (A) (A) (A) (A) (A) (A) (A) (A) (A) (A) (A)
                 (A) (A) (A) (A) (A) (A) (A) (A) (A) (A) (A) (A)
                 (A) (A) (A) (A) (A) (A) (A) (A) (A) (A) (A) (A)
                 (A) (A) (A) (A) (A) (A) (A) (A) (A) (A) (A) (A)
                 (A) (A) (A) (A)
 The electronic state is 1-A.
 Alpha  occ. eigenvalues --  -19.03406 -18.96547 -18.88675 -10.16680 -10.04831
 Alpha  occ. eigenvalues --  -10.02741 -10.02270 -10.02247  -9.99826  -9.99630
 Alpha  occ. eigenvalues --   -0.93773  -0.85425  -0.81641  -0.69598  -0.60294
 Alpha  occ. eigenvalues --   -0.57596  -0.48772  -0.45458  -0.42968  -0.37419
 Alpha  occ. eigenvalues --   -0.33935  -0.31190  -0.29936  -0.29102  -0.28011
 Alpha  occ. eigenvalues --   -0.27520  -0.24265  -0.23239  -0.20367  -0.20039
 Alpha  occ. eigenvalues --   -0.18684  -0.15678  -0.13427  -0.11299  -0.05809
 Alpha  occ. eigenvalues --   -0.03507
 Alpha virt. eigenvalues --    0.11080   0.14220   0.14648   0.19788   0.20967
 Alpha virt. eigenvalues --    0.21136   0.23728   0.25290   0.26168   0.29004
 Alpha virt. eigenvalues --    0.30710   0.31075   0.31871   0.33735   0.34157
 Alpha virt. eigenvalues --    0.36640   0.37363   0.38206   0.38667   0.39198
 Alpha virt. eigenvalues --    0.40895   0.42034   0.44139   0.45047   0.46545
 Alpha virt. eigenvalues --    0.46785   0.48705   0.48985   0.50165   0.50465
 Alpha virt. eigenvalues --    0.52405   0.52728   0.53150   0.55155   0.55512
 Alpha virt. eigenvalues --    0.56610   0.57691   0.58783   0.59937   0.61025
 Alpha virt. eigenvalues --    0.62159   0.63529   0.64037   0.64722   0.65084
 Alpha virt. eigenvalues --    0.66132   0.67091   0.70012   0.71212   0.74100
 Alpha virt. eigenvalues --    0.75477   0.76475   0.79287   0.80107   0.80364
 Alpha virt. eigenvalues --    0.81590   0.85210   0.87526   0.88451   0.88813
 Alpha virt. eigenvalues --    0.89045   0.90404   0.90539   0.92235   0.94101
 Alpha virt. eigenvalues --    0.95354   0.98753   1.01533   1.02806   1.03522
 Alpha virt. eigenvalues --    1.04628   1.04854   1.06759   1.07425   1.09948
 Alpha virt. eigenvalues --    1.13234   1.16323   1.16668   1.20804   1.21540
 Alpha virt. eigenvalues --    1.26107   1.26730   1.29938   1.31652   1.36429
 Alpha virt. eigenvalues --    1.36966   1.37161   1.38387   1.41806   1.43182
 Alpha virt. eigenvalues --    1.44094   1.46700   1.48276   1.48990   1.52004
 Alpha virt. eigenvalues --    1.56793   1.57822   1.58401   1.61137   1.62470
 Alpha virt. eigenvalues --    1.62755   1.63980   1.66563   1.69459   1.70494
 Alpha virt. eigenvalues --    1.71548   1.72805   1.74614   1.77855   1.78323
 Alpha virt. eigenvalues --    1.78710   1.80903   1.84351   1.86082   1.90567
 Alpha virt. eigenvalues --    1.92179   1.93791   1.98666   1.99818   2.00414
 Alpha virt. eigenvalues --    2.01005   2.03759   2.07087   2.09144   2.09973
 Alpha virt. eigenvalues --    2.10421   2.11355   2.13328   2.16284   2.20285
 Alpha virt. eigenvalues --    2.22449   2.27032   2.28824   2.30563   2.32475
 Alpha virt. eigenvalues --    2.33441   2.34389   2.35889   2.39585   2.40136
 Alpha virt. eigenvalues --    2.41420   2.43451   2.50149   2.51289   2.53704
 Alpha virt. eigenvalues --    2.54725   2.57882   2.61397   2.66492   2.70138
 Alpha virt. eigenvalues --    2.71531   2.72725   2.74697   2.77833   2.78603
 Alpha virt. eigenvalues --    2.80199   2.82236   2.83887   2.84533   2.85071
 Alpha virt. eigenvalues --    2.85327   2.88564   2.90247   2.92062   2.93543
 Alpha virt. eigenvalues --    2.94301   2.96342   2.97951   2.98984   3.00598
 Alpha virt. eigenvalues --    3.01997   3.04216   3.06572   3.08312   3.09887
 Alpha virt. eigenvalues --    3.10300   3.11105   3.12983   3.14958   3.18975
 Alpha virt. eigenvalues --    3.21721   3.22663   3.24512   3.27704   3.28047
 Alpha virt. eigenvalues --    3.28949   3.29941   3.30537   3.31096   3.34327
 Alpha virt. eigenvalues --    3.36039   3.37733   3.39284   3.41150   3.42103
 Alpha virt. eigenvalues --    3.43204   3.44823   3.48874   3.50153   3.50959
 Alpha virt. eigenvalues --    3.52964   3.53760   3.55221   3.56067   3.58119
 Alpha virt. eigenvalues --    3.60129   3.61451   3.62120   3.62856   3.64436
 Alpha virt. eigenvalues --    3.68767   3.70865   3.71499   3.72725   3.75102
 Alpha virt. eigenvalues --    3.76713   3.83183   3.88964   3.92012   3.95595
 Alpha virt. eigenvalues --    3.99194   4.01662   4.03547   4.07920   4.08918
 Alpha virt. eigenvalues --    4.13240   4.17648   4.20194   4.24276   4.33310
 Alpha virt. eigenvalues --    4.34043   4.34487   4.35728   4.36699   4.41816
 Alpha virt. eigenvalues --    4.42762   4.44816   4.45616   4.51635   4.55639
 Alpha virt. eigenvalues --    4.63566   4.68255   4.71453   4.74754   4.77597
 Alpha virt. eigenvalues --    4.80213   4.90254   4.91506   5.00448   5.05140
 Alpha virt. eigenvalues --    5.08331   5.09226   5.25790   5.29234   5.30738
 Alpha virt. eigenvalues --    5.35096   5.36519   5.39252   5.42128   5.47152
 Alpha virt. eigenvalues --    5.48260   5.51025   5.54080   5.59272   5.62282
 Alpha virt. eigenvalues --    5.65480   5.75586   5.77270   5.78670   5.90664
 Alpha virt. eigenvalues --    5.98345   6.00730   6.13788   6.24743   6.35039
 Alpha virt. eigenvalues --    6.38763   6.47361   6.54660   6.56261   6.59287
 Alpha virt. eigenvalues --    6.62069   6.70866   6.77177   6.81054   6.84990
 Alpha virt. eigenvalues --    6.90284   6.96822   7.01036   7.07142   7.14645
 Alpha virt. eigenvalues --    7.23687   7.26964   7.28701   7.34817  22.27353
 Alpha virt. eigenvalues --   22.83424  22.94376  22.98130  23.00571  23.22491
 Alpha virt. eigenvalues --   23.66894  43.85315  43.98167  44.11830
          Condensed to atoms (all electrons):
               1          2          3          4          5          6
     1  C    6.103041   0.020878   0.239065  -0.312073   0.249042   0.045569
     2  C    0.020878   6.022494  -0.501280   0.456899  -0.222739   0.017347
     3  C    0.239065  -0.501280   6.506453  -0.293981   0.198939  -0.171843
     4  C   -0.312073   0.456899  -0.293981   5.175213  -0.269365   0.419030
     5  C    0.249042  -0.222739   0.198939  -0.269365   6.433275  -0.450668
     6  C    0.045569   0.017347  -0.171843   0.419030  -0.450668   6.026172
     7  H   -0.046670   0.411880  -0.046840   0.008184  -0.006515   0.014166
     8  H    0.031555  -0.129423   0.457818  -0.095151   0.052259  -0.019703
     9  H    0.030825  -0.019936   0.052229  -0.095969   0.454523  -0.123051
    10  H   -0.048335   0.012050  -0.005016   0.008227  -0.052058   0.414801
    11  O   -0.013376   0.049645  -0.213546   0.749321  -0.212663   0.049177
    12  C    0.081138   0.010796  -0.021507   0.006081   0.006246  -0.087316
    13  O   -0.249474   0.008032  -0.000485   0.000488   0.002163   0.029275
    14  O   -0.184201   0.031326  -0.002711   0.000477   0.000116   0.006591
    15  H    0.029375  -0.005854   0.000111  -0.000025   0.000007  -0.000781
               7          8          9         10         11         12
     1  C   -0.046670   0.031555   0.030825  -0.048335  -0.013376   0.081138
     2  C    0.411880  -0.129423  -0.019936   0.012050   0.049645   0.010796
     3  C   -0.046840   0.457818   0.052229  -0.005016  -0.213546  -0.021507
     4  C    0.008184  -0.095151  -0.095969   0.008227   0.749321   0.006081
     5  C   -0.006515   0.052259   0.454523  -0.052058  -0.212663   0.006246
     6  C    0.014166  -0.019703  -0.123051   0.414801   0.049177  -0.087316
     7  H    0.606729  -0.016476   0.000213  -0.000754  -0.000444  -0.012391
     8  H   -0.016476   0.671126  -0.000312   0.000212   0.011960  -0.000734
     9  H    0.000213  -0.000312   0.666165  -0.015712   0.011903  -0.001127
    10  H   -0.000754   0.000212  -0.015712   0.588307  -0.000368  -0.009330
    11  O   -0.000444   0.011960   0.011903  -0.000368   8.079082  -0.000011
    12  C   -0.012391  -0.000734  -0.001127  -0.009330  -0.000011   4.668041
    13  O    0.000401   0.000005  -0.000195   0.023054  -0.000000   0.711495
    14  O    0.014543  -0.000149   0.000001   0.001048  -0.000000   0.396379
    15  H   -0.001037  -0.000004   0.000000  -0.000185  -0.000000  -0.037359
              13         14         15
     1  C   -0.249474  -0.184201   0.029375
     2  C    0.008032   0.031326  -0.005854
     3  C   -0.000485  -0.002711   0.000111
     4  C    0.000488   0.000477  -0.000025
     5  C    0.002163   0.000116   0.000007
     6  C    0.029275   0.006591  -0.000781
     7  H    0.000401   0.014543  -0.001037
     8  H    0.000005  -0.000149  -0.000004
     9  H   -0.000195   0.000001   0.000000
    10  H    0.023054   0.001048  -0.000185
    11  O   -0.000000  -0.000000  -0.000000
    12  C    0.711495   0.396379  -0.037359
    13  O    7.988230  -0.096039   0.007925
    14  O   -0.096039   7.997015   0.267390
    15  H    0.007925   0.267390   0.454661
 Mulliken charges:
               1
     1  C    0.023640
     2  C   -0.162114
     3  C   -0.197404
     4  C    0.242643
     5  C   -0.182563
     6  C   -0.168766
     7  H    0.075013
     8  H    0.037017
     9  H    0.040444
    10  H    0.084057
    11  O   -0.510680
    12  C    0.289598
    13  O   -0.424874
    14  O   -0.431787
    15  H    0.285775
 Sum of Mulliken charges =  -1.00000
 Mulliken charges with hydrogens summed into heavy atoms:
               1
     1  C    0.023640
     2  C   -0.087101
     3  C   -0.160387
     4  C    0.242643
     5  C   -0.142119
     6  C   -0.084709
    11  O   -0.510680
    12  C    0.289598
    13  O   -0.424874
    14  O   -0.146012
 Electronic spatial extent (au):  <R**2>=           1601.6527
 Charge=             -1.0000 electrons
 Dipole moment (field-independent basis, Debye):
    X=              5.2203    Y=             -1.3432    Z=              0.6748  Tot=              5.4324
 Quadrupole moment (field-independent basis, Debye-Ang):
   XX=            -99.8377   YY=            -63.9734   ZZ=            -61.4804
   XY=             -7.1016   XZ=              3.0672   YZ=             -0.7382
 Traceless Quadrupole moment (field-independent basis, Debye-Ang):
   XX=            -24.7405   YY=             11.1238   ZZ=             13.6167
   XY=             -7.1016   XZ=              3.0672   YZ=             -0.7382
 Octapole moment (field-independent basis, Debye-Ang**2):
  XXX=            131.1667  YYY=             -2.1123  ZZZ=              0.3996  XYY=             -8.7276
  XXY=            -20.0084  XXZ=             11.3626  XZZ=              8.0824  YZZ=             -0.4034
  YYZ=              0.7595  XYZ=             -3.1043
 Hexadecapole moment (field-independent basis, Debye-Ang**3):
 XXXX=          -1976.4881 YYYY=           -432.8816 ZZZZ=            -68.9890 XXXY=           -101.5611
 XXXZ=             47.4206 YYYX=            -10.9745 YYYZ=             -0.8872 ZZZX=              1.7582
 ZZZY=             -0.7065 XXYY=           -369.3535 XXZZ=           -271.6781 YYZZ=            -90.9737
 XXYZ=            -12.1053 YYXZ=              3.3173 ZZXY=             -1.9432
 N-N= 4.727292747342D+02 E-N=-2.118493065474D+03  KE= 4.935348568235D+02
   1 Symmetry operations used in ECPInt.
 ECPInt:  NShTT=    8515 NPrTT=   26800 LenC2=    8108 LenP2D=   19807.
 LDataN:  DoStor=T MaxTD1= 7 Len=  274
 Calling FoFJK, ICntrl=      2127 FMM=F ISym2X=0 I1Cent= 0 IOpClX= 0 NMat=1 NMatS=1 NMatT=0.
 ***** Axes restored to original set *****
 -------------------------------------------------------------------
 Center     Atomic                   Forces (Hartrees/Bohr)
 Number     Number              X              Y              Z
 -------------------------------------------------------------------
      1        6           0.024146195   -0.073011441    0.002734141
      2        6          -0.002785774   -0.003235263   -0.000072812
      3        6           0.014356021   -0.019435324    0.000399278
      4        6          -0.000266575    0.054420635   -0.000936733
      5        6          -0.011142505   -0.022240711    0.000290074
      6        6           0.000081143   -0.007442258    0.001252981
      7        1           0.007343852   -0.007206545    0.000020469
      8        1           0.005094483    0.009067094   -0.000248934
      9        1          -0.005640471    0.008284382   -0.000321599
     10        1          -0.005913675   -0.008213494    0.000294901
     11        8          -0.000725646    0.016135002   -0.000410478
     12        6          -0.050476625    0.011094538   -0.001344165
     13        8           0.051639690    0.013046424   -0.003657530
     14        8          -0.014758283    0.033087961    0.000148897
     15        1          -0.010951830   -0.004350999    0.001851510
 -------------------------------------------------------------------
 Cartesian Forces:  Max     0.073011441 RMS     0.019898622

 GradGradGradGradGradGradGradGradGradGradGradGradGradGradGradGradGradGrad
 Berny optimization.
 FormGI is forming the generalized inverse of G from B-inverse, IUseBI=4.
 Internal  Forces:  Max     0.053581724 RMS     0.014692219
 Search for a local minimum.
 Step number   1 out of a maximum of   77
 All quantities printed in internal units (Hartrees-Bohrs-Radians)
 Mixed Optimization -- RFO/linear search
 Second derivative matrix not updated -- first step.
 ITU=  0
     Eigenvalues ---    0.00237   0.00590   0.01295   0.01525   0.02070
     Eigenvalues ---    0.02070   0.02252   0.02274   0.02376   0.02376
     Eigenvalues ---    0.02469   0.02473   0.16000   0.16000   0.16000
     Eigenvalues ---    0.16000   0.16000   0.22000   0.22958   0.24000
     Eigenvalues ---    0.25000   0.25000   0.25000   0.25000   0.28519
     Eigenvalues ---    0.37230   0.37230   0.37230   0.37230   0.40989
     Eigenvalues ---    0.41504   0.43270   0.45389   0.45389   0.50925
     Eigenvalues ---    0.53930   0.55473   0.80209   0.80209
 RFO step:  Lambda=-3.68843549D-02 EMin= 2.36824136D-03
 Linear search not attempted -- first point.
 Maximum step size (   0.300) exceeded in Quadratic search.
    -- Step size scaled by   0.939
 Iteration  1 RMS(Cart)=  0.05591874 RMS(Int)=  0.00180969
 Iteration  2 RMS(Cart)=  0.00200199 RMS(Int)=  0.00017309
 Iteration  3 RMS(Cart)=  0.00000618 RMS(Int)=  0.00017304
 Iteration  4 RMS(Cart)=  0.00000000 RMS(Int)=  0.00017304
 Variable       Old X    -DE/DX   Delta X   Delta X   Delta X     New X
                                 (Linear)    (Quad)   (Total)
    R1        2.64826   0.01031   0.00000   0.01791   0.01762   2.66588
    R2        2.64826   0.00654   0.00000   0.01057   0.01027   2.65853
    R3        2.91018  -0.05358   0.00000  -0.15618  -0.15618   2.75400
    R4        2.56096   0.02356   0.00000   0.03850   0.03850   2.59946
    R5        2.02201   0.00989   0.00000   0.02269   0.02269   2.04469
    R6        2.64826   0.03371   0.00000   0.06642   0.06672   2.71498
    R7        2.02201   0.00909   0.00000   0.02085   0.02085   2.04286
    R8        2.64826   0.03535   0.00000   0.06943   0.06972   2.71798
    R9        2.37803   0.01615   0.00000   0.01808   0.01808   2.39611
   R10        2.56096   0.02262   0.00000   0.03675   0.03674   2.59770
   R11        2.02201   0.00891   0.00000   0.02043   0.02043   2.04244
   R12        2.02201   0.00934   0.00000   0.02143   0.02143   2.04344
   R13        2.37803  -0.05088   0.00000  -0.05693  -0.05693   2.32110
   R14        2.70231  -0.03628   0.00000  -0.07622  -0.07622   2.62608
   R15        1.81414   0.00408   0.00000   0.00648   0.00648   1.82062
    A1        2.09440  -0.00408   0.00000  -0.02151  -0.02211   2.07228
    A2        2.09440   0.00755   0.00000   0.02877   0.02907   2.12347
    A3        2.09440  -0.00347   0.00000  -0.00726  -0.00696   2.08743
    A4        2.09440   0.00633   0.00000   0.01807   0.01777   2.11217
    A5        2.09440  -0.00604   0.00000  -0.02272  -0.02258   2.07182
    A6        2.09440  -0.00029   0.00000   0.00466   0.00480   2.09920
    A7        2.09440   0.00760   0.00000   0.02980   0.03010   2.12449
    A8        2.09440   0.00132   0.00000   0.00949   0.00934   2.10374
    A9        2.09440  -0.00892   0.00000  -0.03929  -0.03944   2.05495
   A10        2.09440  -0.02466   0.00000  -0.07593  -0.07531   2.01908
   A11        2.09440   0.01266   0.00000   0.03907   0.03876   2.13315
   A12        2.09440   0.01199   0.00000   0.03687   0.03656   2.13095
   A13        2.09440   0.01004   0.00000   0.03797   0.03825   2.13264
   A14        2.09440  -0.00968   0.00000  -0.04118  -0.04132   2.05307
   A15        2.09440  -0.00037   0.00000   0.00321   0.00307   2.09747
   A16        2.09440   0.00477   0.00000   0.01161   0.01130   2.10570
   A17        2.09440  -0.00633   0.00000  -0.02463  -0.02448   2.06992
   A18        2.09440   0.00156   0.00000   0.01302   0.01317   2.10757
   A19        2.09440   0.03129   0.00000   0.10240   0.10240   2.19679
   A20        2.09440  -0.02486   0.00000  -0.08134  -0.08134   2.01305
   A21        2.09440  -0.00644   0.00000  -0.02106  -0.02106   2.07333
   A22        1.91063  -0.01714   0.00000  -0.08174  -0.08174   1.82889
    D1       -0.00000  -0.00013   0.00000  -0.00220  -0.00220  -0.00220
    D2        3.14159  -0.00003   0.00000  -0.00054  -0.00055   3.14104
    D3        3.14159  -0.00004   0.00000  -0.00059  -0.00058   3.14101
    D4       -0.00000   0.00006   0.00000   0.00107   0.00107   0.00107
    D5        0.00000   0.00024   0.00000   0.00382   0.00378   0.00378
    D6        3.14159   0.00009   0.00000   0.00145   0.00144  -3.14016
    D7       -3.14159   0.00015   0.00000   0.00220   0.00220  -3.13939
    D8       -0.00000  -0.00000   0.00000  -0.00016  -0.00014  -0.00014
    D9        3.14159   0.00063   0.00000   0.01538   0.01540  -3.12620
   D10       -0.00000   0.00055   0.00000   0.01347   0.01344   0.01344
   D11       -0.00000   0.00073   0.00000   0.01699   0.01702   0.01702
   D12        3.14159   0.00064   0.00000   0.01508   0.01507  -3.12653
   D13        0.00000  -0.00001   0.00000  -0.00010  -0.00009  -0.00009
   D14       -3.14159   0.00008   0.00000   0.00130   0.00132  -3.14027
   D15       -3.14159  -0.00012   0.00000  -0.00176  -0.00177   3.13982
   D16       -0.00000  -0.00002   0.00000  -0.00035  -0.00035  -0.00035
   D17       -0.00000   0.00005   0.00000   0.00083   0.00083   0.00083
   D18        3.14159   0.00012   0.00000   0.00183   0.00182  -3.13977
   D19       -3.14159  -0.00004   0.00000  -0.00057  -0.00055   3.14104
   D20        0.00000   0.00003   0.00000   0.00043   0.00044   0.00044
   D21       -0.00000   0.00005   0.00000   0.00079   0.00078   0.00078
   D22       -3.14159   0.00006   0.00000   0.00082   0.00080  -3.14079
   D23        3.14159  -0.00001   0.00000  -0.00021  -0.00021   3.14138
   D24        0.00000  -0.00001   0.00000  -0.00019  -0.00019  -0.00019
   D25        0.00000  -0.00020   0.00000  -0.00308  -0.00311  -0.00311
   D26       -3.14159  -0.00005   0.00000  -0.00072  -0.00072   3.14087
   D27        3.14159  -0.00020   0.00000  -0.00311  -0.00314   3.13845
   D28       -0.00000  -0.00005   0.00000  -0.00075  -0.00075  -0.00075
   D29       -2.61799  -0.00511   0.00000  -0.09612  -0.09617  -2.71416
   D30        0.52360  -0.00520   0.00000  -0.09803  -0.09798   0.42562
         Item               Value     Threshold  Converged?
 Maximum Force            0.053582     0.000450     NO 
 RMS     Force            0.014692     0.000300     NO 
 Maximum Displacement     0.232167     0.001800     NO 
 RMS     Displacement     0.056011     0.001200     NO 
 Predicted change in Energy=-2.038847D-02
 GradGradGradGradGradGradGradGradGradGradGradGradGradGradGradGradGradGrad

                          Input orientation:                          
 ---------------------------------------------------------------------
 Center     Atomic      Atomic             Coordinates (Angstroms)
 Number     Number       Type             X           Y           Z
 ---------------------------------------------------------------------
      1          6           0        0.035159   -1.832076    0.035948
      2          6           0        1.229632   -1.081750    0.016147
      3          6           0        1.202636    0.293369   -0.006802
      4          6           0       -0.033974    1.024732   -0.011763
      5          6           0       -1.230329    0.226638    0.009812
      6          6           0       -1.193766   -1.147295    0.034550
      7          1           0        2.174564   -1.608851    0.017752
      8          1           0        2.122765    0.860584   -0.023109
      9          1           0       -2.178778    0.744890    0.005986
     10          1           0       -2.107974   -1.724571    0.051113
     11          8           0       -0.069842    2.291980   -0.034799
     12          6           0        0.047291   -3.289188    0.059638
     13          8           0       -0.942011   -4.017154    0.062449
     14          8           0        1.308128   -3.873240    0.078060
     15          1           0        1.177573   -4.751931   -0.294840
 ---------------------------------------------------------------------
                    Distance matrix (angstroms):
                    1          2          3          4          5
     1  C    0.000000
     2  C    1.410725   0.000000
     3  C    2.425354   1.375575   0.000000
     4  C    2.858042   2.456571   1.436705   0.000000
     5  C    2.416702   2.786275   2.433937   1.438293   0.000000
     6  C    1.406835   2.424354   2.796420   2.462715   1.374642
     7  H    2.151096   1.082006   2.136279   3.437189   3.868124
     8  H    3.407639   2.138198   1.081035   2.163006   3.412655
     9  H    3.397524   3.867037   3.411451   2.163057   1.080812
    10  H    2.145882   3.399125   3.877573   3.444430   2.139902
    11  O    4.125999   3.615699   2.369479   1.267965   2.369464
    12  C    1.457355   2.504516   3.764830   4.315275   3.741099
    13  O    2.393769   3.651680   4.815071   5.123538   4.253900
    14  O    2.405946   2.793279   4.168808   5.079314   4.822595
    15  H    3.152790   3.683701   5.053577   5.909130   5.538678
                    6          7          8          9         10
     6  C    0.000000
     7  H    3.399848   0.000000
     8  H    3.877406   2.470316   0.000000
     9  H    2.133407   4.948922   4.303197   0.000000
    10  H    1.081341   4.284232   4.958597   2.470887   0.000000
    11  O    3.618926   4.500734   2.618503   2.615867   4.504891
    12  C    2.475592   2.711195   4.640587   4.607824   2.663319
    13  O    2.881015   3.938903   5.761293   4.920349   2.572068
    14  O    3.700290   2.425243   4.804472   5.787126   4.035748
    15  H    4.327257   3.312198   5.698030   6.447529   4.481006
                   11         12         13         14         15
    11  O    0.000000
    12  C    5.583195   0.000000
    13  O    6.369874   1.228275   0.000000
    14  O    6.318344   1.389664   2.254790   0.000000
    15  H    7.158236   1.882236   2.271605   0.963430   0.000000
 Stoichiometry    C7H5O3(1-)
 Framework group  C1[X(C7H5O3)]
 Deg. of freedom    39
 Full point group                 C1      NOp   1
 Largest Abelian subgroup         C1      NOp   1
 Largest concise Abelian subgroup C1      NOp   1
                         Standard orientation:                         
 ---------------------------------------------------------------------
 Center     Atomic      Atomic             Coordinates (Angstroms)
 Number     Number       Type             X           Y           Z
 ---------------------------------------------------------------------
      1          6           0        0.617678    0.051969   -0.007735
      2          6           0       -0.069763   -1.179928   -0.006717
      3          6           0       -1.444606   -1.224467   -0.001214
      4          6           0       -2.239235   -0.027531    0.003831
      5          6           0       -1.504171    1.208739    0.001665
      6          6           0       -0.129993    1.243677   -0.005715
      7          1           0        0.505701   -2.096211   -0.008792
      8          1           0       -1.963407   -2.172875    0.000763
      9          1           0       -2.071008    2.128973    0.006103
     10          1           0        0.399166    2.186696   -0.007864
     11          8           0       -3.506824   -0.057616    0.010872
     12          6           0        2.073633    0.115609   -0.012812
     13          8           0        2.749195    1.141318    0.001298
     14          8           0        2.722589   -1.113049   -0.033392
     15          1           0        3.588610   -0.940210    0.351745
 ---------------------------------------------------------------------
 Rotational constants (GHZ):           3.8497799           0.8063682           0.6669726
 Standard basis: def2TZVP (5D, 7F)
 There are   390 symmetry adapted cartesian basis functions of A   symmetry.
 There are   340 symmetry adapted basis functions of A   symmetry.
   340 basis functions,   550 primitive gaussians,   390 cartesian basis functions
    36 alpha electrons       36 beta electrons
       nuclear repulsion energy       473.8607138758 Hartrees.
 NAtoms=   15 NActive=   15 NUniq=   15 SFac= 1.00D+00 NAtFMM=   60 NAOKFM=F Big=F
 Integral buffers will be    131072 words long.
 Raffenetti 2 integral format.
 Two-electron integral symmetry is turned on.
 One-electron integrals computed using PRISM.
   1 Symmetry operations used in ECPInt.
 ECPInt:  NShTT=    8515 NPrTT=   26800 LenC2=    8113 LenP2D=   19822.
 LDataN:  DoStor=T MaxTD1= 6 Len=  172
 NBasis=   340 RedAO= T EigKep=  1.13D-05  NBF=   340
 NBsUse=   340 1.00D-06 EigRej= -1.00D+00 NBFU=   340
 Initial guess from the checkpoint file:  "C6H5O-.chk"
 B after Tr=    -0.000000   -0.000000   -0.000000
         Rot=    0.999983    0.000229    0.000058    0.005764 Ang=   0.66 deg.
 ExpMin= 9.52D-02 ExpMax= 2.70D+04 ExpMxC= 9.22D+02 IAcc=2 IRadAn=         4 AccDes= 0.00D+00
 Harris functional with IExCor=  402 and IRadAn=       4 diagonalized for initial guess.
 HarFok:  IExCor=  402 AccDes= 0.00D+00 IRadAn=         4 IDoV= 1 UseB2=F ITyADJ=14
 ICtDFT=  3500011 ScaDFX=  1.000000  1.000000  1.000000  1.000000
 FoFCou: FMM=F IPFlag=           0 FMFlag=      100000 FMFlg1=           0
         NFxFlg=           0 DoJE=T BraDBF=F KetDBF=T FulRan=T
         wScrn=  0.000000 ICntrl=       500 IOpCl=  0 I1Cent=   200000004 NGrid=           0
         NMat0=    1 NMatS0=      1 NMatT0=    0 NMatD0=    1 NMtDS0=    0 NMtDT0=    0
 Petite list used in FoFCou.
 Requested convergence on RMS density matrix=1.00D-08 within 128 cycles.
 Requested convergence on MAX density matrix=1.00D-06.
 Requested convergence on             energy=1.00D-06.
 No special actions if energy rises.
 Integral accuracy reduced to 1.0D-05 until final iterations.
 Initial convergence to 1.0D-05 achieved.  Increase integral accuracy.
 SCF Done:  E(RB3LYP) =  -495.705340801     A.U. after   14 cycles
            NFock= 14  Conv=0.40D-08     -V/T= 2.0046
   1 Symmetry operations used in ECPInt.
 ECPInt:  NShTT=    8515 NPrTT=   26800 LenC2=    8113 LenP2D=   19822.
 LDataN:  DoStor=T MaxTD1= 7 Len=  274
 Calling FoFJK, ICntrl=      2127 FMM=F ISym2X=0 I1Cent= 0 IOpClX= 0 NMat=1 NMatS=1 NMatT=0.
 ***** Axes restored to original set *****
 -------------------------------------------------------------------
 Center     Atomic                   Forces (Hartrees/Bohr)
 Number     Number              X              Y              Z
 -------------------------------------------------------------------
      1        6           0.008382419   -0.022768755    0.002265242
      2        6          -0.000677747    0.008924831   -0.000399896
      3        6           0.002977434   -0.012235666    0.000316389
      4        6          -0.000877244    0.024993601   -0.000407264
      5        6          -0.003491632   -0.012052098    0.000173065
      6        6          -0.000075416    0.010313128    0.000403247
      7        1           0.000652808   -0.000150461   -0.000125401
      8        1           0.001229631    0.002214984   -0.000068994
      9        1          -0.001401145    0.002565116   -0.000096946
     10        1          -0.000967299   -0.001227036    0.000076028
     11        8           0.000292933   -0.011146429    0.000173257
     12        6          -0.012263132    0.008887559    0.001409262
     13        8           0.007197556   -0.000346854   -0.003199515
     14        8           0.001411946    0.006440077   -0.005240124
     15        1          -0.002391109   -0.004411997    0.004721650
 -------------------------------------------------------------------
 Cartesian Forces:  Max     0.024993601 RMS     0.007112666

 GradGradGradGradGradGradGradGradGradGradGradGradGradGradGradGradGradGrad
 Berny optimization.
 Using GEDIIS/GDIIS optimizer.
 FormGI is forming the generalized inverse of G from B-inverse, IUseBI=4.
 Internal  Forces:  Max     0.011151574 RMS     0.003255472
 Search for a local minimum.
 Step number   2 out of a maximum of   77
 All quantities printed in internal units (Hartrees-Bohrs-Radians)
 Mixed Optimization -- RFO/linear search
 Update second derivatives using D2CorX and points    1    2
 DE= -2.10D-02 DEPred=-2.04D-02 R= 1.03D+00
 TightC=F SS=  1.41D+00  RLast= 3.31D-01 DXNew= 5.0454D-01 9.9335D-01
 Trust test= 1.03D+00 RLast= 3.31D-01 DXMaxT set to 5.05D-01
 ITU=  1  0
 Use linear search instead of GDIIS.
     Eigenvalues ---    0.00237   0.00554   0.01264   0.01509   0.02070
     Eigenvalues ---    0.02070   0.02264   0.02280   0.02382   0.02383
     Eigenvalues ---    0.02475   0.02479   0.15947   0.16000   0.16000
     Eigenvalues ---    0.16000   0.16243   0.21923   0.22603   0.23313
     Eigenvalues ---    0.24730   0.25000   0.25000   0.25219   0.28205
     Eigenvalues ---    0.37109   0.37230   0.37230   0.37275   0.41367
     Eigenvalues ---    0.42226   0.43146   0.44272   0.45444   0.50983
     Eigenvalues ---    0.55373   0.55943   0.78989   0.83932
 RFO step:  Lambda=-4.18093392D-03 EMin= 2.36919238D-03
 Quartic linear search produced a step of  0.20591.
 Iteration  1 RMS(Cart)=  0.05215705 RMS(Int)=  0.02123300
 Iteration  2 RMS(Cart)=  0.02298429 RMS(Int)=  0.00149328
 Iteration  3 RMS(Cart)=  0.00144744 RMS(Int)=  0.00003705
 Iteration  4 RMS(Cart)=  0.00000281 RMS(Int)=  0.00003700
 Iteration  5 RMS(Cart)=  0.00000000 RMS(Int)=  0.00003700
 Variable       Old X    -DE/DX   Delta X   Delta X   Delta X     New X
                                 (Linear)    (Quad)   (Total)
    R1        2.66588   0.00366   0.00363   0.00609   0.00966   2.67555
    R2        2.65853   0.00548   0.00211   0.01223   0.01429   2.67282
    R3        2.75400  -0.01066  -0.03216  -0.01275  -0.04491   2.70909
    R4        2.59946  -0.00273   0.00793  -0.01291  -0.00499   2.59447
    R5        2.04469   0.00064   0.00467  -0.00226   0.00241   2.04711
    R6        2.71498   0.00688   0.01374   0.00593   0.01972   2.73470
    R7        2.04286   0.00221   0.00429   0.00307   0.00736   2.05022
    R8        2.71798   0.00620   0.01436   0.00365   0.01807   2.73605
    R9        2.39611  -0.01115   0.00372  -0.01963  -0.01590   2.38020
   R10        2.59770  -0.00289   0.00757  -0.01290  -0.00533   2.59237
   R11        2.04244   0.00246   0.00421   0.00394   0.00815   2.05059
   R12        2.04344   0.00147   0.00441   0.00062   0.00503   2.04847
   R13        2.32110  -0.00560  -0.01172   0.00140  -0.01032   2.31078
   R14        2.62608  -0.00175  -0.01570   0.00916  -0.00654   2.61955
   R15        1.82062   0.00252   0.00133   0.00424   0.00558   1.82619
    A1        2.07228  -0.00477  -0.00455  -0.01930  -0.02398   2.04830
    A2        2.12347   0.00489   0.00599   0.01771   0.02376   2.14723
    A3        2.08743  -0.00012  -0.00143   0.00158   0.00021   2.08765
    A4        2.11217   0.00233   0.00366   0.00725   0.01085   2.12302
    A5        2.07182  -0.00097  -0.00465   0.00101  -0.00361   2.06821
    A6        2.09920  -0.00136   0.00099  -0.00827  -0.00725   2.09195
    A7        2.12449   0.00247   0.00620   0.00607   0.01232   2.13682
    A8        2.10374   0.00003   0.00192   0.00045   0.00234   2.10608
    A9        2.05495  -0.00250  -0.00812  -0.00652  -0.01467   2.04028
   A10        2.01908  -0.00466  -0.01551  -0.00655  -0.02193   1.99716
   A11        2.13315   0.00236   0.00798   0.00317   0.01109   2.14424
   A12        2.13095   0.00230   0.00753   0.00337   0.01084   2.14179
   A13        2.13264   0.00104   0.00788  -0.00305   0.00488   2.13753
   A14        2.05307  -0.00214  -0.00851  -0.00500  -0.01353   2.03954
   A15        2.09747   0.00109   0.00063   0.00804   0.00865   2.10612
   A16        2.10570   0.00358   0.00233   0.01557   0.01784   2.12353
   A17        2.06992  -0.00232  -0.00504  -0.00723  -0.01224   2.05768
   A18        2.10757  -0.00126   0.00271  -0.00834  -0.00560   2.10197
   A19        2.19679   0.00729   0.02108   0.01311   0.03419   2.23099
   A20        2.01305  -0.00415  -0.01675  -0.00268  -0.01944   1.99362
   A21        2.07333  -0.00314  -0.00434  -0.01042  -0.01476   2.05858
   A22        1.82889  -0.00169  -0.01683   0.00700  -0.00983   1.81905
    D1       -0.00220  -0.00002  -0.00045   0.00032  -0.00013  -0.00233
    D2        3.14104   0.00003  -0.00011   0.00148   0.00137  -3.14077
    D3        3.14101   0.00003  -0.00012   0.00218   0.00207  -3.14011
    D4        0.00107   0.00009   0.00022   0.00335   0.00357   0.00464
    D5        0.00378   0.00007   0.00078   0.00087   0.00163   0.00541
    D6       -3.14016   0.00003   0.00030   0.00081   0.00109  -3.13907
    D7       -3.13939   0.00003   0.00045  -0.00094  -0.00046  -3.13986
    D8       -0.00014  -0.00001  -0.00003  -0.00100  -0.00101  -0.00115
    D9       -3.12620   0.00047   0.00317   0.05501   0.05815  -3.06805
   D10        0.01344   0.00049   0.00277   0.06079   0.06357   0.07700
   D11        0.01702   0.00053   0.00351   0.05691   0.06041   0.07744
   D12       -3.12653   0.00054   0.00310   0.06270   0.06583  -3.06069
   D13       -0.00009  -0.00003  -0.00002  -0.00116  -0.00118  -0.00127
   D14       -3.14027   0.00003   0.00027   0.00052   0.00080  -3.13947
   D15        3.13982  -0.00008  -0.00036  -0.00233  -0.00269   3.13713
   D16       -0.00035  -0.00002  -0.00007  -0.00066  -0.00072  -0.00107
   D17        0.00083   0.00003   0.00017   0.00086   0.00102   0.00185
   D18       -3.13977   0.00005   0.00037   0.00118   0.00155  -3.13823
   D19        3.14104  -0.00002  -0.00011  -0.00077  -0.00087   3.14017
   D20        0.00044  -0.00000   0.00009  -0.00044  -0.00034   0.00010
   D21        0.00078   0.00002   0.00016   0.00031   0.00047   0.00124
   D22       -3.14079   0.00001   0.00016  -0.00002   0.00014  -3.14065
   D23        3.14138  -0.00000  -0.00004  -0.00001  -0.00006   3.14132
   D24       -0.00019  -0.00001  -0.00004  -0.00035  -0.00039  -0.00058
   D25       -0.00311  -0.00008  -0.00064  -0.00120  -0.00185  -0.00497
   D26        3.14087  -0.00004  -0.00015  -0.00114  -0.00129   3.13958
   D27        3.13845  -0.00007  -0.00065  -0.00086  -0.00151   3.13694
   D28       -0.00075  -0.00003  -0.00015  -0.00080  -0.00095  -0.00169
   D29       -2.71416  -0.00560  -0.01980  -0.30134  -0.32110  -3.03526
   D30        0.42562  -0.00557  -0.02018  -0.29597  -0.31619   0.10943
         Item               Value     Threshold  Converged?
 Maximum Force            0.011152     0.000450     NO 
 RMS     Force            0.003255     0.000300     NO 
 Maximum Displacement     0.462264     0.001800     NO 
 RMS     Displacement     0.072920     0.001200     NO 
 Predicted change in Energy=-3.664821D-03
 GradGradGradGradGradGradGradGradGradGradGradGradGradGradGradGradGradGrad

                          Input orientation:                          
 ---------------------------------------------------------------------
 Center     Atomic      Atomic             Coordinates (Angstroms)
 Number     Number       Type             X           Y           Z
 ---------------------------------------------------------------------
      1          6           0        0.044525   -1.847982   -0.002933
      2          6           0        1.232519   -1.078048   -0.024683
      3          6           0        1.201446    0.294518   -0.017601
      4          6           0       -0.037007    1.042617    0.010775
      5          6           0       -1.230819    0.223725    0.033316
      6          6           0       -1.183678   -1.147280    0.029478
      7          1           0        2.183673   -1.595875   -0.050403
      8          1           0        2.121600    0.869001   -0.036530
      9          1           0       -2.182412    0.744817    0.054042
     10          1           0       -2.098666   -1.728220    0.048730
     11          8           0       -0.074932    2.301591    0.013896
     12          6           0        0.042317   -3.281563   -0.007805
     13          8           0       -0.923351   -4.029809   -0.061528
     14          8           0        1.303552   -3.852553    0.061608
     15          1           0        1.142303   -4.798800   -0.050221
 ---------------------------------------------------------------------
                    Distance matrix (angstroms):
                    1          2          3          4          5
     1  C    0.000000
     2  C    1.415839   0.000000
     3  C    2.434952   1.372936   0.000000
     4  C    2.891781   2.471876   1.447142   0.000000
     5  C    2.433061   2.786756   2.433827   1.447853   0.000000
     6  C    1.414396   2.417795   2.787438   2.472013   1.371821
     7  H    2.154476   1.083283   2.130595   3.449174   3.869976
     8  H    3.420142   2.140469   1.084930   2.166094   3.414671
     9  H    3.418348   3.871793   3.414439   2.166407   1.085124
    10  H    2.147156   3.394835   3.871254   3.453898   2.136231
    11  O    4.151326   3.623931   2.378754   1.259549   2.377809
    12  C    1.433591   2.504465   3.759260   4.324947   3.729559
    13  O    2.387590   3.655410   4.818350   5.149789   4.265686
    14  O    2.368042   2.776755   4.149085   5.075665   4.799988
    15  H    3.148758   3.721933   5.093767   5.959584   5.555578
                    6          7          8          9         10
     6  C    0.000000
     7  H    3.398039   0.000000
     8  H    3.872287   2.465697   0.000000
     9  H    2.139650   4.955042   4.306756   0.000000
    10  H    1.084004   4.285530   4.956155   2.474460   0.000000
    11  O    3.622743   4.505072   2.622901   2.620425   4.509555
    12  C    2.461629   2.725576   4.642352   4.600541   2.645728
    13  O    2.895690   3.946867   5.768076   4.939194   2.586664
    14  O    3.675030   2.424821   4.792902   5.769559   4.010991
    15  H    4.330143   3.367964   5.751799   6.465005   4.465661
                   11         12         13         14         15
    11  O    0.000000
    12  C    5.584427   0.000000
    13  O    6.388437   1.222813   0.000000
    14  O    6.306821   1.386205   2.237338   0.000000
    15  H    7.204258   1.874507   2.204179   0.966380   0.000000
 Stoichiometry    C7H5O3(1-)
 Framework group  C1[X(C7H5O3)]
 Deg. of freedom    39
 Full point group                 C1      NOp   1
 Largest Abelian subgroup         C1      NOp   1
 Largest concise Abelian subgroup C1      NOp   1
                         Standard orientation:                         
 ---------------------------------------------------------------------
 Center     Atomic      Atomic             Coordinates (Angstroms)
 Number     Number       Type             X           Y           Z
 ---------------------------------------------------------------------
      1          6           0        0.636380    0.045184    0.003746
      2          6           0       -0.070894   -1.181138    0.026108
      3          6           0       -1.443243   -1.221217    0.023448
      4          6           0       -2.254590   -0.023153   -0.000623
      5          6           0       -1.498729    1.211516   -0.023923
      6          6           0       -0.127118    1.235473   -0.024528
      7          1           0        0.495599   -2.104217    0.048703
      8          1           0       -1.969215   -2.169928    0.042782
      9          1           0       -2.068489    2.134858   -0.041513
     10          1           0        0.405569    2.179359   -0.044213
     11          8           0       -3.513842   -0.050510    0.000327
     12          6           0        2.067929    0.121665    0.004053
     13          8           0        2.765308    1.124732    0.056887
     14          8           0        2.703269   -1.108193   -0.069136
     15          1           0        3.640250   -0.898285    0.039927
 ---------------------------------------------------------------------
 Rotational constants (GHZ):           3.8806211           0.8044318           0.6666006
 Standard basis: def2TZVP (5D, 7F)
 There are   390 symmetry adapted cartesian basis functions of A   symmetry.
 There are   340 symmetry adapted basis functions of A   symmetry.
   340 basis functions,   550 primitive gaussians,   390 cartesian basis functions
    36 alpha electrons       36 beta electrons
       nuclear repulsion energy       474.1503678586 Hartrees.
 NAtoms=   15 NActive=   15 NUniq=   15 SFac= 1.00D+00 NAtFMM=   60 NAOKFM=F Big=F
 Integral buffers will be    131072 words long.
 Raffenetti 2 integral format.
 Two-electron integral symmetry is turned on.
 One-electron integrals computed using PRISM.
   1 Symmetry operations used in ECPInt.
 ECPInt:  NShTT=    8515 NPrTT=   26800 LenC2=    8112 LenP2D=   19813.
 LDataN:  DoStor=T MaxTD1= 6 Len=  172
 NBasis=   340 RedAO= T EigKep=  1.16D-05  NBF=   340
 NBsUse=   340 1.00D-06 EigRej= -1.00D+00 NBFU=   340
 Initial guess from the checkpoint file:  "C6H5O-.chk"
 B after Tr=     0.000000   -0.000000    0.000000
         Rot=    1.000000    0.000045   -0.000062    0.000974 Ang=   0.11 deg.
 ExpMin= 9.52D-02 ExpMax= 2.70D+04 ExpMxC= 9.22D+02 IAcc=2 IRadAn=         4 AccDes= 0.00D+00
 Harris functional with IExCor=  402 and IRadAn=       4 diagonalized for initial guess.
 HarFok:  IExCor=  402 AccDes= 0.00D+00 IRadAn=         4 IDoV= 1 UseB2=F ITyADJ=14
 ICtDFT=  3500011 ScaDFX=  1.000000  1.000000  1.000000  1.000000
 FoFCou: FMM=F IPFlag=           0 FMFlag=      100000 FMFlg1=           0
         NFxFlg=           0 DoJE=T BraDBF=F KetDBF=T FulRan=T
         wScrn=  0.000000 ICntrl=       500 IOpCl=  0 I1Cent=   200000004 NGrid=           0
         NMat0=    1 NMatS0=      1 NMatT0=    0 NMatD0=    1 NMtDS0=    0 NMtDT0=    0
 Petite list used in FoFCou.
 Requested convergence on RMS density matrix=1.00D-08 within 128 cycles.
 Requested convergence on MAX density matrix=1.00D-06.
 Requested convergence on             energy=1.00D-06.
 No special actions if energy rises.
 Integral accuracy reduced to 1.0D-05 until final iterations.
 Initial convergence to 1.0D-05 achieved.  Increase integral accuracy.
 SCF Done:  E(RB3LYP) =  -495.708796413     A.U. after   13 cycles
            NFock= 13  Conv=0.83D-08     -V/T= 2.0045
   1 Symmetry operations used in ECPInt.
 ECPInt:  NShTT=    8515 NPrTT=   26800 LenC2=    8112 LenP2D=   19813.
 LDataN:  DoStor=T MaxTD1= 7 Len=  274
 Calling FoFJK, ICntrl=      2127 FMM=F ISym2X=0 I1Cent= 0 IOpClX= 0 NMat=1 NMatS=1 NMatT=0.
 ***** Axes restored to original set *****
 -------------------------------------------------------------------
 Center     Atomic                   Forces (Hartrees/Bohr)
 Number     Number              X              Y              Z
 -------------------------------------------------------------------
      1        6           0.000954316    0.001211925    0.000880573
      2        6          -0.000334492    0.003507266    0.000556647
      3        6           0.001257573   -0.003996313   -0.000150932
      4        6          -0.000529642    0.008445838   -0.000127767
      5        6          -0.001473212   -0.004021872    0.000185700
      6        6          -0.000318816    0.004273743   -0.000961227
      7        1           0.000236017    0.000200955    0.000058446
      8        1          -0.000087400    0.000086374   -0.000093136
      9        1           0.000216045    0.000091822    0.000196974
     10        1          -0.000119028   -0.000147889   -0.000071159
     11        8           0.000394609   -0.006169645    0.000042243
     12        6           0.002041237    0.000013140    0.000764557
     13        8          -0.004082073   -0.003297442   -0.000521562
     14        8           0.003169721   -0.000036408   -0.002114766
     15        1          -0.001324856   -0.000161496    0.001355410
 -------------------------------------------------------------------
 Cartesian Forces:  Max     0.008445838 RMS     0.002270249

 GradGradGradGradGradGradGradGradGradGradGradGradGradGradGradGradGradGrad
 Berny optimization.
 Using GEDIIS/GDIIS optimizer.
 FormGI is forming the generalized inverse of G from B-inverse, IUseBI=4.
 Internal  Forces:  Max     0.006178614 RMS     0.001317089
 Search for a local minimum.
 Step number   3 out of a maximum of   77
 All quantities printed in internal units (Hartrees-Bohrs-Radians)
 Mixed Optimization -- RFO/linear search
 Update second derivatives using D2CorX and points    2    3
 DE= -3.46D-03 DEPred=-3.66D-03 R= 9.43D-01
 TightC=F SS=  1.41D+00  RLast= 4.77D-01 DXNew= 8.4853D-01 1.4301D+00
 Trust test= 9.43D-01 RLast= 4.77D-01 DXMaxT set to 8.49D-01
 ITU=  1  1  0
 Use linear search instead of GDIIS.
     Eigenvalues ---    0.00250   0.00538   0.01387   0.01501   0.02070
     Eigenvalues ---    0.02070   0.02270   0.02281   0.02383   0.02387
     Eigenvalues ---    0.02477   0.02486   0.15785   0.16000   0.16000
     Eigenvalues ---    0.16039   0.16209   0.21482   0.22272   0.23247
     Eigenvalues ---    0.24759   0.25000   0.25008   0.25264   0.29656
     Eigenvalues ---    0.37052   0.37230   0.37231   0.37274   0.41495
     Eigenvalues ---    0.42090   0.43075   0.43490   0.45445   0.51004
     Eigenvalues ---    0.55426   0.55841   0.78689   0.84109
 RFO step:  Lambda=-9.74319625D-04 EMin= 2.49912348D-03
 Quartic linear search produced a step of  0.13611.
 Iteration  1 RMS(Cart)=  0.06684827 RMS(Int)=  0.00848222
 Iteration  2 RMS(Cart)=  0.00932337 RMS(Int)=  0.00019983
 Iteration  3 RMS(Cart)=  0.00018172 RMS(Int)=  0.00010353
 Iteration  4 RMS(Cart)=  0.00000006 RMS(Int)=  0.00010353
 Variable       Old X    -DE/DX   Delta X   Delta X   Delta X     New X
                                 (Linear)    (Quad)   (Total)
    R1        2.67555   0.00062   0.00132   0.00222   0.00354   2.67909
    R2        2.67282   0.00138   0.00194   0.00417   0.00611   2.67893
    R3        2.70909   0.00348  -0.00611   0.00872   0.00261   2.71170
    R4        2.59447  -0.00274  -0.00068  -0.00511  -0.00579   2.58869
    R5        2.04711   0.00011   0.00033   0.00093   0.00126   2.04836
    R6        2.73470   0.00143   0.00268   0.00582   0.00850   2.74320
    R7        2.05022  -0.00003   0.00100   0.00065   0.00165   2.05187
    R8        2.73605   0.00130   0.00246   0.00554   0.00800   2.74404
    R9        2.38020  -0.00618  -0.00216  -0.00893  -0.01110   2.36911
   R10        2.59237  -0.00281  -0.00073  -0.00526  -0.00599   2.58638
   R11        2.05059  -0.00014   0.00111   0.00032   0.00143   2.05202
   R12        2.04847   0.00018   0.00069   0.00120   0.00189   2.05036
   R13        2.31078   0.00526  -0.00140   0.00578   0.00437   2.31515
   R14        2.61955   0.00172  -0.00089   0.00282   0.00193   2.62147
   R15        1.82619   0.00022   0.00076   0.00081   0.00157   1.82776
    A1        2.04830  -0.00081  -0.00326  -0.00536  -0.00863   2.03967
    A2        2.14723   0.00094   0.00323   0.00592   0.00915   2.15638
    A3        2.08765  -0.00013   0.00003  -0.00054  -0.00051   2.08713
    A4        2.12302   0.00038   0.00148   0.00239   0.00386   2.12688
    A5        2.06821   0.00011  -0.00049   0.00064   0.00015   2.06836
    A6        2.09195  -0.00049  -0.00099  -0.00303  -0.00402   2.08793
    A7        2.13682   0.00039   0.00168   0.00302   0.00469   2.14151
    A8        2.10608  -0.00007   0.00032   0.00017   0.00049   2.10657
    A9        2.04028  -0.00032  -0.00200  -0.00318  -0.00518   2.03510
   A10        1.99716  -0.00062  -0.00298  -0.00513  -0.00812   1.98904
   A11        2.14424   0.00006   0.00151   0.00148   0.00299   2.14723
   A12        2.14179   0.00056   0.00147   0.00365   0.00513   2.14691
   A13        2.13753  -0.00010   0.00066   0.00058   0.00124   2.13877
   A14        2.03954  -0.00014  -0.00184  -0.00247  -0.00431   2.03524
   A15        2.10612   0.00023   0.00118   0.00189   0.00307   2.10918
   A16        2.12353   0.00075   0.00243   0.00454   0.00696   2.13049
   A17        2.05768  -0.00044  -0.00167  -0.00324  -0.00491   2.05277
   A18        2.10197  -0.00031  -0.00076  -0.00128  -0.00205   2.09992
   A19        2.23099  -0.00009   0.00465   0.00313   0.00731   2.23830
   A20        1.99362   0.00040  -0.00265  -0.00063  -0.00374   1.98988
   A21        2.05858  -0.00031  -0.00201  -0.00234  -0.00481   2.05377
   A22        1.81905  -0.00212  -0.00134  -0.01709  -0.01843   1.80062
    D1       -0.00233   0.00000  -0.00002   0.00122   0.00119  -0.00114
    D2       -3.14077   0.00004   0.00019   0.00288   0.00306  -3.13771
    D3       -3.14011  -0.00009   0.00028  -0.00540  -0.00513   3.13795
    D4        0.00464  -0.00005   0.00049  -0.00374  -0.00326   0.00138
    D5        0.00541  -0.00017   0.00022  -0.00853  -0.00830  -0.00289
    D6       -3.13907  -0.00004   0.00015  -0.00244  -0.00227  -3.14134
    D7       -3.13986  -0.00007  -0.00006  -0.00213  -0.00222   3.14111
    D8       -0.00115   0.00006  -0.00014   0.00396   0.00381   0.00265
    D9       -3.06805  -0.00034   0.00791  -0.17244  -0.16446   3.05068
   D10        0.07700  -0.00067   0.00865  -0.23178  -0.22318  -0.14617
   D11        0.07744  -0.00043   0.00822  -0.17919  -0.17092  -0.09349
   D12       -3.06069  -0.00076   0.00896  -0.23854  -0.22965   2.99285
   D13       -0.00127   0.00012  -0.00016   0.00483   0.00466   0.00339
   D14       -3.13947   0.00006   0.00011   0.00248   0.00259  -3.13688
   D15        3.13713   0.00008  -0.00037   0.00315   0.00277   3.13990
   D16       -0.00107   0.00002  -0.00010   0.00081   0.00071  -0.00037
   D17        0.00185  -0.00007   0.00014  -0.00360  -0.00345  -0.00160
   D18       -3.13823  -0.00012   0.00021  -0.00560  -0.00538   3.13958
   D19        3.14017  -0.00002  -0.00012  -0.00133  -0.00145   3.13871
   D20        0.00010  -0.00007  -0.00005  -0.00333  -0.00338  -0.00328
   D21        0.00124  -0.00009   0.00006  -0.00373  -0.00366  -0.00242
   D22       -3.14065  -0.00007   0.00002  -0.00277  -0.00274   3.13979
   D23        3.14132  -0.00004  -0.00001  -0.00174  -0.00173   3.13958
   D24       -0.00058  -0.00002  -0.00005  -0.00077  -0.00082  -0.00140
   D25       -0.00497   0.00021  -0.00025   0.00996   0.00971   0.00475
   D26        3.13958   0.00008  -0.00018   0.00372   0.00354  -3.14007
   D27        3.13694   0.00020  -0.00021   0.00896   0.00876  -3.13748
   D28       -0.00169   0.00006  -0.00013   0.00272   0.00258   0.00089
   D29       -3.03526  -0.00117  -0.04371  -0.06922  -0.11308   3.13484
   D30        0.10943  -0.00147  -0.04304  -0.12230  -0.16518  -0.05575
         Item               Value     Threshold  Converged?
 Maximum Force            0.006179     0.000450     NO 
 RMS     Force            0.001317     0.000300     NO 
 Maximum Displacement     0.397650     0.001800     NO 
 RMS     Displacement     0.072835     0.001200     NO 
 Predicted change in Energy=-6.482206D-04
 GradGradGradGradGradGradGradGradGradGradGradGradGradGradGradGradGradGrad

                          Input orientation:                          
 ---------------------------------------------------------------------
 Center     Atomic      Atomic             Coordinates (Angstroms)
 Number     Number       Type             X           Y           Z
 ---------------------------------------------------------------------
      1          6           0        0.051871   -1.850972    0.023245
      2          6           0        1.236619   -1.072352    0.017909
      3          6           0        1.201905    0.297021    0.004892
      4          6           0       -0.039154    1.050020   -0.000221
      5          6           0       -1.231688    0.221555    0.007557
      6          6           0       -1.178031   -1.146019    0.015905
      7          1           0        2.192099   -1.584208    0.019604
      8          1           0        2.121209    0.874763   -0.003400
      9          1           0       -2.185069    0.741366    0.005861
     10          1           0       -2.092468   -1.729990    0.020122
     11          8           0       -0.078097    2.303053   -0.010007
     12          6           0        0.045922   -3.285902    0.032453
     13          8           0       -0.915394   -4.039729    0.124926
     14          8           0        1.297180   -3.856765   -0.148819
     15          1           0        1.114169   -4.805703   -0.109884
 ---------------------------------------------------------------------
                    Distance matrix (angstroms):
                    1          2          3          4          5
     1  C    0.000000
     2  C    1.417711   0.000000
     3  C    2.436553   1.369875   0.000000
     4  C    2.902515   2.476365   1.451640   0.000000
     5  C    2.437856   2.786906   2.434765   1.452086   0.000000
     6  C    1.417629   2.415775   2.783269   2.473841   1.368652
     7  H    2.156792   1.083947   2.125964   3.452251   3.870820
     8  H    3.422353   2.138740   1.085805   2.167462   3.415951
     9  H    3.424094   3.872682   3.415997   2.168008   1.085882
    10  H    2.147751   3.393422   3.868061   3.456149   2.132985
    11  O    4.156191   3.622515   2.379662   1.253677   2.379857
    12  C    1.434972   2.513519   3.764890   4.336880   3.732983
    13  O    2.395119   3.667143   4.827501   5.166140   4.274618
    14  O    2.367193   2.790057   4.157720   5.087672   4.801283
    15  H    3.142711   3.737544   5.104768   5.969227   5.548888
                    6          7          8          9         10
     6  C    0.000000
     7  H    3.398500   0.000000
     8  H    3.868969   2.460100   0.000000
     9  H    2.139263   4.956620   4.308353   0.000000
    10  H    1.085004   4.287046   4.953823   2.473131   0.000000
    11  O    3.620308   4.501718   2.622404   2.622680   4.508219
    12  C    2.465245   2.738979   4.649649   4.604010   2.644565
    13  O    2.907648   3.961968   5.778378   4.948244   2.594490
    14  O    3.674499   2.448216   4.804948   5.769990   4.005174
    15  H    4.320103   3.399519   5.770022   6.455102   4.445158
                   11         12         13         14         15
    11  O    0.000000
    12  C    5.590493   0.000000
    13  O    6.399231   1.225126   0.000000
    14  O    6.313003   1.387224   2.236939   0.000000
    15  H    7.208737   1.863117   2.181966   0.967209   0.000000
 Stoichiometry    C7H5O3(1-)
 Framework group  C1[X(C7H5O3)]
 Deg. of freedom    39
 Full point group                 C1      NOp   1
 Largest Abelian subgroup         C1      NOp   1
 Largest concise Abelian subgroup C1      NOp   1
                         Standard orientation:                         
 ---------------------------------------------------------------------
 Center     Atomic      Atomic             Coordinates (Angstroms)
 Number     Number       Type             X           Y           Z
 ---------------------------------------------------------------------
      1          6           0        0.638941    0.039600   -0.018424
      2          6           0       -0.077549   -1.183176   -0.055378
      3          6           0       -1.446882   -1.219580   -0.042822
      4          6           0       -2.262871   -0.019927    0.004678
      5          6           0       -1.497005    1.213275    0.039525
      6          6           0       -0.128488    1.230517    0.030972
      7          1           0        0.482893   -2.110356   -0.089791
      8          1           0       -1.976447   -2.167174   -0.067316
      9          1           0       -2.065284    2.137949    0.073856
     10          1           0        0.407550    2.173432    0.059377
     11          8           0       -3.516240   -0.046000    0.014295
     12          6           0        2.071650    0.119834   -0.025674
     13          8           0        2.774850    1.121376   -0.083630
     14          8           0        2.706379   -1.105895    0.112519
     15          1           0        3.644595   -0.872958    0.081147
 ---------------------------------------------------------------------
 Rotational constants (GHZ):           3.8826686           0.8013050           0.6650004
 Standard basis: def2TZVP (5D, 7F)
 There are   390 symmetry adapted cartesian basis functions of A   symmetry.
 There are   340 symmetry adapted basis functions of A   symmetry.
   340 basis functions,   550 primitive gaussians,   390 cartesian basis functions
    36 alpha electrons       36 beta electrons
       nuclear repulsion energy       473.7553351382 Hartrees.
 NAtoms=   15 NActive=   15 NUniq=   15 SFac= 1.00D+00 NAtFMM=   60 NAOKFM=F Big=F
 Integral buffers will be    131072 words long.
 Raffenetti 2 integral format.
 Two-electron integral symmetry is turned on.
 One-electron integrals computed using PRISM.
   1 Symmetry operations used in ECPInt.
 ECPInt:  NShTT=    8515 NPrTT=   26800 LenC2=    8109 LenP2D=   19811.
 LDataN:  DoStor=T MaxTD1= 6 Len=  172
 NBasis=   340 RedAO= T EigKep=  1.17D-05  NBF=   340
 NBsUse=   340 1.00D-06 EigRej= -1.00D+00 NBFU=   340
 Initial guess from the checkpoint file:  "C6H5O-.chk"
 B after Tr=    -0.000000   -0.000000   -0.000000
         Rot=    1.000000    0.000042   -0.000001    0.000474 Ang=   0.05 deg.
 ExpMin= 9.52D-02 ExpMax= 2.70D+04 ExpMxC= 9.22D+02 IAcc=2 IRadAn=         4 AccDes= 0.00D+00
 Harris functional with IExCor=  402 and IRadAn=       4 diagonalized for initial guess.
 HarFok:  IExCor=  402 AccDes= 0.00D+00 IRadAn=         4 IDoV= 1 UseB2=F ITyADJ=14
 ICtDFT=  3500011 ScaDFX=  1.000000  1.000000  1.000000  1.000000
 FoFCou: FMM=F IPFlag=           0 FMFlag=      100000 FMFlg1=           0
         NFxFlg=           0 DoJE=T BraDBF=F KetDBF=T FulRan=T
         wScrn=  0.000000 ICntrl=       500 IOpCl=  0 I1Cent=   200000004 NGrid=           0
         NMat0=    1 NMatS0=      1 NMatT0=    0 NMatD0=    1 NMtDS0=    0 NMtDT0=    0
 Petite list used in FoFCou.
 Requested convergence on RMS density matrix=1.00D-08 within 128 cycles.
 Requested convergence on MAX density matrix=1.00D-06.
 Requested convergence on             energy=1.00D-06.
 No special actions if energy rises.
 Integral accuracy reduced to 1.0D-05 until final iterations.
 Initial convergence to 1.0D-05 achieved.  Increase integral accuracy.
 SCF Done:  E(RB3LYP) =  -495.708700760     A.U. after   13 cycles
            NFock= 13  Conv=0.83D-08     -V/T= 2.0046
[...]
 ! D23   D(11,4,5,6)           180.0125         -DE/DX =    0.0                 !
 ! D24   D(11,4,5,9)             0.0155         -DE/DX =    0.0                 !
 ! D25   D(4,5,6,1)              0.0053         -DE/DX =    0.0                 !
 ! D26   D(4,5,6,10)           180.0066         -DE/DX =    0.0                 !
 ! D27   D(9,5,6,1)           -179.9978         -DE/DX =    0.0                 !
 ! D28   D(9,5,6,10)             0.0036         -DE/DX =    0.0                 !
 ! D29   D(1,12,14,15)        -180.0146         -DE/DX =    0.0                 !
 ! D30   D(13,12,14,15)         -0.013          -DE/DX =    0.0                 !
 --------------------------------------------------------------------------------
 GradGradGradGradGradGradGradGradGradGradGradGradGradGradGradGradGradGrad


 ----------------------------------------------------------------------

 Electric dipole moment (input orientation):
 (Debye = 10**-18 statcoulomb cm , SI units = C m)
                  (au)            (Debye)         (10**-30 SI)
   Tot        0.200228D+01      0.508928D+01      0.169760D+02
   x          0.596019D+00      0.151493D+01      0.505326D+01
   y         -0.191144D+01     -0.485839D+01     -0.162058D+02
   z         -0.168792D-01     -0.429027D-01     -0.143108D+00

 Dipole polarizability, Alpha (input orientation).
 (esu units = cm**3 , SI units = C**2 m**2 J**-1)
 Alpha(0;0):
               (au)            (10**-24 esu)      (10**-40 SI)
   iso        0.106156D+03      0.157306D+02      0.175027D+02
   aniso      0.100435D+03      0.148829D+02      0.165594D+02
   xx         0.983490D+02      0.145738D+02      0.162156D+02
   yx        -0.994158D+00     -0.147319D+00     -0.163915D+00
   yy         0.167634D+03      0.248409D+02      0.276392D+02
   zx        -0.712125D+00     -0.105526D+00     -0.117414D+00
   zy         0.473130D+00      0.701106D-01      0.780086D-01
   zz         0.524834D+02      0.777724D+01      0.865335D+01

 ----------------------------------------------------------------------

 Dipole orientation:
     6         -0.91479255         -0.25912586          3.36000613
     6          1.55427058          0.47437586          2.63019525
     6          2.23517623          0.67650071          0.14167076
     6          0.49432773          0.15896608         -1.91239999
     6         -2.01561333         -0.58630173         -1.09512691
     6         -2.66310400         -0.77851346          1.40064655
     1          2.92741086          0.88249696          4.09378437
     1          4.13572265          1.24117079         -0.38126394
     1         -3.38262771         -0.99234049         -2.56847235
     1         -4.55834252         -1.34147518          1.93995513
     8          1.10449472          0.34055348         -4.19340048
     6         -1.69502229         -0.49078185          5.94980020
     8         -3.77746507         -1.10874738          6.75868880
     8          0.17959713          0.06545870          7.69983386
     1         -0.65734138         -0.18251000          9.30530312

 Electric dipole moment (dipole orientation):
 (Debye = 10**-18 statcoulomb cm , SI units = C m)
                  (au)            (Debye)         (10**-30 SI)
   Tot        0.200228D+01      0.508928D+01      0.169760D+02
   x          0.000000D+00      0.000000D+00      0.000000D+00
   y          0.000000D+00      0.000000D+00      0.000000D+00
   z          0.200228D+01      0.508928D+01      0.169760D+02

 Dipole polarizability, Alpha (dipole orientation).
 (esu units = cm**3 , SI units = C**2 m**2 J**-1)
 Alpha(0;0):
               (au)            (10**-24 esu)      (10**-40 SI)
   iso        0.106156D+03      0.157306D+02      0.175027D+02
   aniso      0.100435D+03      0.148829D+02      0.165594D+02
   xx         0.997617D+02      0.147832D+02      0.164485D+02
   yx         0.140452D+02      0.208128D+01      0.231574D+01
   yy         0.566419D+02      0.839346D+01      0.933899D+01
   zx        -0.180889D+02     -0.268050D+01     -0.298246D+01
   zy        -0.536795D+01     -0.795448D+00     -0.885056D+00
   zz         0.162063D+03      0.240153D+02      0.267206D+02

 ----------------------------------------------------------------------
 1\1\GINC-N12\Freq\RB3LYP\def2TZVP\C7H5O3(1-)\UNKNOWN\20-Jan-2025\0\\#N
  Geom=AllCheck Guess=TCheck SCRF=Check GenChk RB3LYP/def2TZVP Freq\\op
 t\\-1,1\C,0.0491437833,-1.8471996713,-0.0017927593\C,1.235236258,-1.07
 26687585,-0.016922533\C,1.2020166975,0.2963745384,-0.0109706154\C,-0.0
 389232261,1.0478595955,0.0109692039\C,-1.2327216097,0.2224423324,0.026
 2040528\C,-1.1807545166,-1.1447709122,0.019964056\H,2.1893757386,-1.58
 63103506,-0.0335790132\H,2.1211305106,0.8729505259,-0.0227587989\H,-2.
 1851301108,0.7420307014,0.0429910372\H,-2.0944722105,-1.7287403618,0.0
 317061071\O,-0.0766562753,2.3004609184,0.0167632587\C,0.0459736803,-3.
 2837287062,-0.0074690847\O,-0.9238328547,-4.0346272926,0.0047726414\O,
 1.3093541773,-3.8596792545,-0.0295712195\H,1.1213315781,-4.8082563444,
 -0.030164393\\Version=ES64L-G16RevA.03\State=1-A\HF=-495.7091601\RMSD=
 5.394e-09\RMSF=3.237e-05\ZeroPoint=0.1058825\Thermal=0.1139014\Dipole=
 0.5960189,-1.9114368,-0.0168792\DipoleDeriv=-0.4764737,0.0721184,0.005
 5121,-0.0010311,-1.8050095,-0.0066019,0.0051959,-0.0077503,-0.1383466,
 0.2109506,0.4035278,-0.003403,0.2587985,0.8635695,-0.0001058,-0.003955
 3,-0.0023959,-0.116297,-0.0378522,0.6939335,-0.0007175,-0.0076527,-0.7
 423295,-0.0017594,-0.0035643,-0.0125302,-0.2653262,0.2739088,-0.069321
 7,-0.0023482,-0.0479646,2.0961151,0.0084865,-0.0022528,0.0089452,0.139
 3262,-0.0096181,-0.6315864,-0.0063913,0.022042,-0.7591844,-0.0023075,-
 0.0037765,0.0078055,-0.2599257,0.2421919,-0.453597,-0.0074118,-0.25602
 73,0.7836148,0.0075196,-0.0066055,0.0106647,-0.1214335,-0.0965236,0.07
 61601,0.0035122,0.0878265,0.0532165,-0.0015826,0.003561,-0.0013613,0.1
 131221,-0.1273577,-0.1014802,0.0035489,-0.117859,-0.0380377,0.001138,0
 .003481,0.0009028,0.1304167,-0.1381388,0.0947858,0.0045319,0.1126828,-
 0.0253143,-0.0023604,0.0046054,-0.0020994,0.13087,-0.0722192,-0.069555
 4,0.0025672,-0.101226,0.0449773,0.0012875,0.0024285,0.0008213,0.112357
 1,-0.4600373,0.0563512,0.0001,0.0440521,-2.2223313,-0.0076171,0.000059
 ,-0.0080827,-0.4680216,1.4935509,0.1159696,-0.0195104,-0.0020012,3.186
 9672,0.0118372,-0.0199808,0.0099677,0.2237807,-0.9881741,-0.8984553,0.
 0055844,-0.4119011,-1.7312099,0.0011789,0.0075384,0.0087518,-0.404701,
 -1.079354,0.8685254,0.0145442,0.462403,-0.9290631,-0.0095128,0.0129644
 ,-0.0159404,-0.3716153,0.2651465,-0.1573757,-0.0001188,-0.0421418,0.22
 40193,0.0003997,0.0003016,0.0023012,0.2957942\Polar=98.3489619,-0.9941
 584,167.6344842,-0.7121247,0.47313,52.4834424\Quadrupole=8.4015889,-18
 .273101,9.871512,-3.2308609,0.0113249,-0.0628609\PG=C01 [X(C7H5O3)]\NI
 mag=0\\0.64954297,0.00563465,0.66047537,-0.00818173,0.00208236,0.11744
 065,-0.24085540,-0.08896731,0.00247997,0.67302552,-0.05865682,-0.14402
 552,0.00055009,-0.04102743,0.71778429,0.00259744,0.00101170,-0.0564336
 5,-0.00844499,0.00295030,0.13308817,0.01641552,-0.02048745,-0.00020081
 ,-0.12806016,-0.01631455,0.00112219,0.61917250,-0.04877038,-0.04437808
 ,0.00053669,0.03112485,-0.39489570,-0.00184342,0.05989513,0.73447460,-
 0.00031153,0.00010223,0.00864850,0.00130937,-0.00111644,-0.05052229,-0
 .00760903,0.00157551,0.10689538,-0.04558677,-0.00184093,0.00057638,0.0
 3450722,0.05373205,-0.00033809,-0.21474955,0.01440742,0.00220380,0.538
 58849,-0.00218648,0.01686890,0.00013530,0.02634861,-0.02783023,-0.0005
 0659,0.04071933,-0.11549406,-0.00078163,-0.00794788,0.79814393,0.00057
 333,0.00012921,-0.00772268,-0.00044708,-0.00093323,-0.00153108,0.00231
 379,-0.00037957,-0.07391579,-0.00526343,0.00255938,0.19883629,0.012640
 37,0.02387767,0.00002940,-0.00698831,-0.00285760,0.00006774,-0.0322603
 1,-0.00332761,0.00062326,-0.21090339,-0.04639711,0.00193355,0.62646471
 ,0.05249699,-0.04014861,-0.00100527,-0.02045902,-0.02392241,0.00022547
 ,-0.00088667,0.03705431,0.00012513,-0.02000729,-0.11892936,0.00014124,
 -0.06769838,0.72911128,0.00014450,-0.00056262,0.00847346,-0.00000064,-
 0.00004257,-0.00177954,0.00062772,0.00016334,0.00891753,0.00204167,0.0
 0054745,-0.07436387,-0.00827069,0.00351100,0.10895420,-0.24749054,0.08
 227295,0.00323333,-0.05691899,-0.01305787,0.00094231,-0.00839815,0.021
 62156,0.00018511,0.03948355,-0.02239972,-0.00071453,-0.12874037,-0.014
 01393,0.00113258,0.66378770,0.05119169,-0.13414189,-0.00108531,0.00780
 305,0.03157516,-0.00002351,0.00347719,-0.02232892,-0.00013256,-0.04912
 108,-0.03256175,0.00062622,0.03285886,-0.39825970,-0.00188201,0.036945
 46,0.73168465,0.00311028,-0.00156354,-0.05906634,0.00102382,0.00029529
 ,0.00765457,0.00011429,-0.00041401,-0.00188797,-0.00082238,0.00022066,
 -0.00105609,0.00131733,-0.00115773,-0.05195158,-0.00798157,0.00179942,
 0.13634434,-0.01959489,0.01476229,0.00039214,-0.27024641,0.11022793,0.
 00401667,0.00220254,-0.00072576,0.00003868,0.00205878,-0.00102687,0.00
 012929,0.00081444,-0.00056596,-0.00002409,-0.00330562,-0.00476557,0.00
 008624,0.28737868,-0.01381677,0.01158555,0.00024981,0.11324972,-0.1170
 3736,-0.00205476,0.03030608,-0.01128578,-0.00052725,-0.00360928,-0.003
 44811,-0.00000157,0.00000253,-0.00026232,0.00000133,-0.00305401,-0.001
 69091,0.00002597,-0.12301594,0.12425524,0.00027962,-0.00018615,0.00212
 645,0.00402830,-0.00201042,-0.03663104,0.00016004,-0.00005154,0.004884
 30,0.00012096,-0.00004129,0.01075498,-0.00002175,0.00000927,-0.0006054
 5,0.00009293,0.00005191,0.00358435,-0.00450903,0.00227855,0.02503154,0
 .00242279,0.00053384,0.00009369,0.00357736,0.00273528,-0.00004507,-0.2
 5323505,-0.11992360,0.00294036,-0.02006009,-0.02223467,0.00028581,-0.0
 0411766,0.00421429,0.00013609,-0.00024972,0.00148746,0.00000984,0.0012
 7611,-0.00070842,-0.00010365,0.26719810,0.00257651,-0.00459874,-0.0000
 9156,-0.02876470,-0.01331278,0.00038795,-0.12032140,-0.12846649,0.0014
 5289,0.01292109,0.00867205,-0.00018064,0.00239437,-0.00110454,-0.00005
 603,0.00062501,-0.00040575,-0.00001124,0.00043134,0.00103890,0.0000186
 3,0.13279412,0.13616512,0.00010287,-0.00006005,0.00844655,-0.00017141,
 -0.00009409,-0.00010411,0.00294256,0.00144651,-0.03002831,0.00042334,0
 .00035597,0.00435668,0.00012895,-0.00008325,0.00369045,0.00000635,-0.0
 0002415,-0.00000766,-0.00009955,0.00003639,-0.00532611,-0.00321849,-0.
 00158345,0.02255208,0.00260545,-0.00012497,0.00009386,-0.00011957,-0.0
 0145934,-0.00000345,-0.00367371,-0.00437274,0.00009675,-0.02050587,0.0
 2044561,0.00046740,-0.26740288,0.11138380,0.00410362,0.00198515,-0.001
 64473,-0.00003353,-0.00001272,0.00010879,-0.00001329,-0.00154031,0.000
 72851,0.00001656,0.28283653,-0.00206812,-0.00474214,-0.00002140,-0.000
 61562,-0.00054555,0.00000715,-0.00256440,-0.00149963,0.00001886,-0.014
 69643,0.00913933,0.00024551,0.11184877,-0.11434808,-0.00206048,0.02975
 161,-0.01167687,-0.00050667,0.00015289,0.00002236,0.00000130,-0.000853
 05,0.00045366,0.00001729,-0.12390750,0.12051337,0.00008514,-0.00005262
 ,0.00866040,-0.00000006,0.00002082,0.00004337,0.00010361,0.00004733,0.
 00367092,0.00033051,-0.00029839,0.00449716,0.00410214,-0.00205477,-0.0
 3075514,0.00009129,-0.00002080,0.00025661,-0.00001286,0.00000190,-0.00
 089370,0.00001082,-0.00000702,-0.00063352,-0.00451395,0.00230256,0.022
 82590,-0.02031420,-0.01643330,0.00029696,-0.00375940,0.00445145,0.0001
 2614,0.00072653,0.00065967,-0.00001714,0.00163688,0.00136469,0.0001458
 5,0.00446130,0.00192033,0.00001941,-0.25234315,-0.11998294,0.00282542,
 -0.00134941,-0.00086151,0.00003327,0.00000588,-0.00015024,-0.00001364,
 0.00120140,-0.00043505,-0.00010439,0.26860912,0.01136575,0.01162519,-0
 .00014188,0.00282922,-0.00127423,-0.00006136,0.00009227,-0.00028102,-0
 .00000043,0.00386831,-0.00303803,-0.00011502,-0.02875742,-0.01283239,0
 .00037292,-0.12255156,-0.13371784,0.00150438,0.00078860,0.00053599,-0.
 00001405,-0.00010830,-0.00000487,0.00000493,0.00069532,0.00110343,0.00
 001560,0.13312048,0.14026719,0.00040631,0.00028766,0.00319718,0.000120
 08,-0.00008670,0.00325850,-0.00001959,-0.00000993,-0.00056276,0.000154
 60,-0.00007632,0.01076189,-0.00010066,-0.00009902,0.00525804,0.0028149
 0,0.00146263,-0.03795708,0.00004019,0.00001131,0.00104726,-0.00001329,
 0.00000562,-0.00083722,-0.00010061,0.00003271,-0.00546497,-0.00320945,
 -0.00159429,0.02589587,0.00977073,0.00088070,-0.00014801,-0.01178520,-
 0.00855053,0.00021853,0.00552254,0.05361992,0.00044080,-0.09825214,0.0
 1289177,0.00049175,0.01054152,-0.04914092,-0.00005490,-0.01187838,0.00
 690048,0.00028296,-0.00029112,0.00172743,-0.00001694,0.00457576,-0.001
 68935,-0.00012599,0.00458385,0.00184704,-0.00011277,-0.00011019,-0.001
 59124,-0.00003252,0.08519985,0.00136850,-0.01851662,-0.00009642,0.0072
 2628,0.01183878,-0.00008371,0.03246988,-0.06152908,-0.00083341,0.01265
 342,-0.52461034,-0.00207153,-0.02776097,-0.06635090,0.00007408,-0.0089
 1217,0.01181311,0.00016616,0.00060696,-0.00176916,-0.00000787,0.001853
 89,0.00214210,-0.00000599,-0.00172321,0.00214559,0.00004868,-0.0003852
 3,-0.00190797,0.00000699,-0.01677279,0.63938123,-0.00014562,-0.0000893
 4,-0.00006619,0.00028204,0.00016104,0.00469386,0.00035255,-0.00115392,
 0.01993963,0.00049140,-0.00208346,-0.06978705,0.00003298,0.00040775,0.
 01997329,0.00021926,-0.00007600,0.00466357,-0.00002069,-0.00002665,-0.
 00179923,-0.00011134,0.00004747,-0.00319996,-0.00012748,-0.00000696,-0
 .00319174,-0.00002821,0.00002403,-0.00184346,-0.00090512,0.00276276,0.
 03092178,-0.10407881,0.01370238,0.00065855,0.00967773,-0.02841215,-0.0
 0039357,-0.00730371,-0.00396633,0.00017989,-0.00372376,-0.00029173,0.0
 0003217,-0.00658061,0.00499713,0.00019981,0.00936178,0.02683378,-0.000
 12163,-0.00266604,-0.00077393,-0.00000291,0.00007330,-0.00169050,0.000
 02579,-0.00007470,0.00151629,0.00003630,-0.00311843,0.00134750,0.00001
 352,0.00067654,0.00032646,-0.00001460,0.66670065,-0.00313019,-0.233072
 12,-0.00061931,-0.02282270,-0.04066833,0.00022631,-0.00918339,0.017292
 28,0.00018861,0.00045248,-0.01677412,-0.00006996,0.00740140,0.01821052
 ,-0.00006190,0.02868738,-0.04456557,-0.00060227,0.00372397,0.00099076,
 -0.00004351,0.00071765,0.00074088,-0.00001670,-0.00070880,0.00077112,0
 .00000758,-0.00443795,0.00028076,0.00007921,-0.00064325,0.01900449,0.0
 0008922,0.17170594,0.75768934,0.00058946,-0.00088229,-0.06495790,-0.00
 037079,0.00031113,-0.00857290,0.00016050,0.00010730,0.00545388,0.00003
 393,-0.00005673,-0.00153285,0.00020979,-0.00002546,0.00508370,-0.00011
 523,-0.00056818,-0.00542974,0.00001600,0.00002632,-0.00264126,0.000035
 06,0.00002051,0.00217515,0.00002742,-0.00002761,0.00187097,-0.00000835
 ,-0.00000980,-0.00257211,-0.00001796,0.00007234,-0.00036107,-0.0065373
 7,-0.00051432,0.20577515,-0.00061621,-0.03862166,0.00014037,0.00481339
 ,0.00634171,0.00005571,0.00377697,-0.00414085,-0.00009247,-0.00122849,
 0.00438454,0.00004126,0.00006949,-0.00558947,-0.00002963,-0.01042701,0
 .01068308,0.00020114,0.00071923,0.00069555,-0.00000252,-0.00010675,-0.
 00014519,-0.00001503,0.00019327,-0.00031054,-0.00000547,0.00374814,-0.
 00020585,-0.00006182,0.00086682,-0.00515155,-0.00003295,-0.40879125,-0
 .23365987,0.00426411,0.51094116,-0.04406844,-0.04977213,0.00041866,0.0
 1115583,0.00215772,-0.00018912,0.00121781,-0.00703443,-0.00004297,-0.0
 0233948,0.00655437,0.00006125,-0.00292140,-0.00490432,0.00002690,-0.00
 857778,0.00793277,0.00016636,-0.00093720,0.00036610,0.00001523,-0.0002
 2807,-0.00104551,0.00000335,0.00044066,-0.00040554,-0.00000846,0.00059
 320,-0.00110982,-0.00001216,0.00094565,-0.00786662,-0.00004691,-0.2373
 0860,-0.30470290,0.00282372,0.29224012,0.32228785,0.00012073,0.0003315
 5,0.01815786,0.00007250,-0.00011652,0.00675850,-0.00007091,0.00004123,
 -0.00112594,0.00001478,-0.00004314,0.00028674,-0.00001881,0.00006870,-
 0.00039618,0.00012493,-0.00013397,-0.00018747,-0.00001009,-0.00001069,
 0.00031900,-0.00001512,0.00000229,-0.00103740,-0.00000209,0.00000342,-
 0.00005061,-0.00005958,-0.00000028,-0.00024253,-0.00000859,0.00004842,
 0.00008370,0.00424822,0.00277176,-0.07791188,-0.00631289,-0.00344365,0
 .03480100,-0.00783447,0.02482840,0.00039628,-0.00637035,-0.00668966,0.
 00008068,-0.00070299,0.00427041,0.00001801,-0.00097608,-0.00396932,0.0
 0000068,0.00266600,0.00345783,-0.00003066,0.00470566,-0.00438694,-0.00
 003870,0.00242185,-0.00024914,-0.00003143,0.00021662,0.00033649,-0.000
 00210,-0.00009633,0.00021746,-0.00000670,0.00074828,-0.00097821,-0.000
 01548,0.00046927,0.00471924,0.00001357,-0.15944744,0.00592444,0.001582
 83,-0.10440502,-0.00142294,0.00204601,0.33429113,0.04458389,-0.0299928
 0,-0.00086205,0.00304249,-0.00017423,-0.00005191,0.00183841,-0.0019966
 8,-0.00003282,0.00162141,0.00373686,-0.00000958,0.00060583,-0.00385281
 ,-0.00002340,-0.00712363,-0.00228564,0.00008672,0.00030181,-0.00337490
 ,-0.00002102,-0.00029718,-0.00026936,0.00000333,0.00017876,-0.00084476
 ,-0.00000380,0.00044167,0.00039033,-0.00000520,-0.00042007,-0.00430525
 ,-0.00001182,0.04578966,-0.13688156,-0.00101736,-0.01818895,0.03362523
 ,0.00031348,0.04702071,0.61139135,0.00047595,-0.00055398,0.01121760,0.
 00011976,0.00010180,0.00055143,0.00000854,-0.00007181,-0.00064828,0.00
 002457,0.00007698,0.00012646,-0.00004266,-0.00006904,-0.00021208,-0.00
 005015,0.00004693,0.00341082,-0.00002957,-0.00001249,0.00045249,-0.000
 00480,-0.00000626,-0.00000887,-0.00000713,-0.00000440,-0.00060290,-0.0
 0001020,0.00001701,-0.00001855,-0.00000767,-0.00009184,0.00010108,0.00
 173023,-0.00038975,-0.06045570,0.00197716,0.00005363,0.02619202,-0.004
 60308,0.00145628,0.03059776,-0.00702652,-0.00001727,0.00013962,-0.0004
 9744,-0.00046248,-0.00000225,0.00056707,-0.00037170,-0.00000585,-0.000
 28878,0.00029923,0.00001017,-0.00066429,-0.00010873,0.00000521,0.00042
 811,0.00172020,0.00002649,0.00059457,-0.00000110,-0.00001360,-0.000036
 35,-0.00004606,-0.00000021,0.00002045,0.00011664,-0.00000360,-0.000142
 74,0.00008513,0.00000381,0.00011016,-0.00051872,-0.00000580,0.00929476
 ,0.05597288,0.00013058,0.00044625,-0.00878936,-0.00012908,-0.06568612,
 -0.11939480,0.00041906,0.06288089,0.00347919,0.00283362,-0.00004971,-0
 .00012326,0.00033038,0.00000552,-0.00025826,0.00036869,0.00000429,-0.0
 0009380,-0.00042945,-0.00000170,0.00073105,0.00053936,-0.00000801,-0.0
 0021330,-0.00137084,-0.00000950,0.00004151,0.00007365,0.00000096,0.000
 01677,-0.00000466,-0.00000010,-0.00004018,-0.00008632,0.00000141,0.000
 13472,-0.00003672,-0.00000252,-0.00000485,0.00053064,0.00000280,0.0062
 2410,-0.03831556,-0.00025958,-0.00833107,0.00391724,0.00016738,-0.0730
 7877,-0.46516580,-0.00055307,0.07151614,0.49681578,0.00015326,0.000005
 87,0.00187811,-0.00000086,0.00000951,-0.00047378,-0.00000547,0.0000063
 1,0.00028121,0.00000796,-0.00000820,0.00028919,0.00000942,0.00000599,-
 0.00028684,0.00001849,-0.00004062,0.00162967,-0.00001332,0.00000183,-0
 .00030359,0.00000009,0.00000083,-0.00003775,-0.00000409,-0.00000129,-0
 .00023275,0.00000392,-0.00000178,0.00007993,-0.00000358,0.00001133,-0.
 00012823,-0.00005438,-0.00104496,0.00407656,-0.00012697,0.00017419,-0.
 00564683,0.00059010,0.00017916,-0.01070327,-0.00057456,0.00070182,0.00
 957835\\0.00002216,0.00005432,0.00000113,-0.00001178,-0.00002424,0.000
 00501,-0.00003734,0.00005278,0.00002031,0.00000034,-0.00010098,-0.0000
 6329,0.00002840,0.00005389,0.00001938,0.00001865,-0.00003446,0.0000021
 3,-0.00000408,0.00000854,-0.00000076,0.00000502,-0.00000275,-0.0000012
 5,-0.00000317,-0.00000350,0.00000051,-0.00000059,0.00000755,-0.0000037
 1,-0.00000017,0.00005666,0.00002350,-0.00007672,-0.00005235,-0.0000038
 3,0.00006911,0.00001233,0.00000223,-0.00001950,-0.00002075,-0.00000384
 ,0.00000969,-0.00000704,0.00000247\\\@


 A MAN BEGINS CUTTING HIS WISDOM TEETH THE 1ST
 TIME HE BITES OFF MORE THAN HE CAN CHEW.
 Job cpu time:       0 days  0 hours 21 minutes 21.2 seconds.
 Elapsed time:       0 days  0 hours 21 minutes 23.0 seconds.
 File lengths (MBytes):  RWF=    162 Int=      0 D2E=      0 Chk=     11 Scr=      1
 Normal termination of Gaussian 16 at Mon Jan 20 12:44:28 2025.
