 Entering Gaussian System, Link 0=g16
 Initial command:
 /sw/cluster/pub/apps//g16/l1.exe "/data/mmaximo/28053/Gau-920960.inp" -scrdir="/data/mmaximo/28053/"
 Entering Link 1 = /sw/cluster/pub/apps//g16/l1.exe PID=    920961.
  
 Copyright (c) 1988,1990,1992,1993,1995,1998,2003,2009,2016,
            Gaussian, Inc.  All Rights Reserved.
  
 This is part of the Gaussian(R) 16 program.  It is based on
 the Gaussian(R) 09 system (copyright 2009, Gaussian, Inc.),
 the Gaussian(R) 03 system (copyright 2003, Gaussian, Inc.),
 the Gaussian(R) 98 system (copyright 1998, Gaussian, Inc.),
 the Gaussian(R) 94 system (copyright 1995, Gaussian, Inc.),
 the Gaussian 92(TM) system (copyright 1992, Gaussian, Inc.),
 the Gaussian 90(TM) system (copyright 1990, Gaussian, Inc.),
 the Gaussian 88(TM) system (copyright 1988, Gaussian, Inc.),
 the Gaussian 86(TM) system (copyright 1986, Carnegie Mellon
 University), and the Gaussian 82(TM) system (copyright 1983,
 Carnegie Mellon University). Gaussian is a federally registered
 trademark of Gaussian, Inc.
  
 This software contains proprietary and confidential information,
 including trade secrets, belonging to Gaussian, Inc.
  
 This software is provided under written license and may be
 used, copied, transmitted, or stored only in accord with that
 written license.
  
 The following legend is applicable only to US Government
 contracts under FAR:
  
                    RESTRICTED RIGHTS LEGEND
  
 Use, reproduction and disclosure by the US Government is
 subject to restrictions as set forth in subparagraphs (a)
 and (c) of the Commercial Computer Software - Restricted
 Rights clause in FAR 52.227-19.
  
 Gaussian, Inc.
 340 Quinnipiac St., Bldg. 40, Wallingford CT 06492
  
  
 ---------------------------------------------------------------
 Warning -- This program may not be used in any manner that
 competes with the business of Gaussian, Inc. or will provide
 assistance to any competitor of Gaussian, Inc.  The licensee
 of this program is prohibited from giving any competitor of
 Gaussian, Inc. access to this program.  By using this program,
 the user acknowledges that Gaussian, Inc. is engaged in the
 business of creating and licensing software in the field of
 computational chemistry and represents and warrants to the
 licensee that it is not a competitor of Gaussian, Inc. and that
 it will not use this program in any manner prohibited above.
 ---------------------------------------------------------------
  

 Cite this work as:
 Gaussian 16, Revision A.03,
 M. J. Frisch, G. W. Trucks, H. B. Schlegel, G. E. Scuseria, 
 M. A. Robb, J. R. Cheeseman, G. Scalmani, V. Barone, 
 G. A. Petersson, H. Nakatsuji, X. Li, M. Caricato, A. V. Marenich, 
 J. Bloino, B. G. Janesko, R. Gomperts, B. Mennucci, H. P. Hratchian, 
 J. V. Ortiz, A. F. Izmaylov, J. L. Sonnenberg, D. Williams-Young, 
 F. Ding, F. Lipparini, F. Egidi, J. Goings, B. Peng, A. Petrone, 
 T. Henderson, D. Ranasinghe, V. G. Zakrzewski, J. Gao, N. Rega, 
 G. Zheng, W. Liang, M. Hada, M. Ehara, K. Toyota, R. Fukuda, 
 J. Hasegawa, M. Ishida, T. Nakajima, Y. Honda, O. Kitao, H. Nakai, 
 T. Vreven, K. Throssell, J. A. Montgomery, Jr., J. E. Peralta, 
 F. Ogliaro, M. J. Bearpark, J. J. Heyd, E. N. Brothers, K. N. Kudin, 
 V. N. Staroverov, T. A. Keith, R. Kobayashi, J. Normand, 
 K. Raghavachari, A. P. Rendell, J. C. Burant, S. S. Iyengar, 
 J. Tomasi, M. Cossi, J. M. Millam, M. Klene, C. Adamo, R. Cammi, 
 J. W. Ochterski, R. L. Martin, K. Morokuma, O. Farkas, 
 J. B. Foresman, and D. J. Fox, Gaussian, Inc., Wallingford CT, 2016.
 
 ******************************************
 Gaussian 16:  ES64L-G16RevA.03 25-Dec-2016
                20-Jan-2025 
 ******************************************
 %chk=C6H4-NH-2.chk
 -------------------------
 # opt freq b3lyp def2tzvp
 -------------------------
 1/18=20,19=15,26=3,38=1/1,3;
 2/9=110,12=2,17=6,18=5,40=1/2;
 3/5=44,7=101,11=2,25=1,30=1,71=1,74=-5/1,2,3;
 4//1;
 5/5=2,38=5/2;
 6/7=2,8=2,9=2,10=2,28=1/1;
 7//1,2,3,16;
 1/18=20,19=15,26=3/3(2);
 2/9=110/2;
 99//99;
 2/9=110/2;
 3/5=44,7=101,11=2,25=1,30=1,71=1,74=-5/1,2,3;
 4/5=5,16=3,69=1/1;
 5/5=2,38=5/2;
 7//1,2,3,16;
 1/18=20,19=15,26=3/3(-5);
 2/9=110/2;
 6/7=2,8=2,9=2,10=2,19=2,28=1/1;
 99/9=1/99;
 --------
 opt meta
 --------
 Symbolic Z-matrix:
 Charge =  0 Multiplicity = 1
 C                     1.23294  -0.77971   0.01917 
 C                     1.2758    0.75857   0.07787 
 C                     0.12254   1.46993   0.05518 
 C                    -1.23086   0.74001  -0.0293 
 C                    -1.27372  -0.79828  -0.08799 
 C                    -0.12046  -1.50964  -0.06531 
 N                     2.33378  -1.45874   0.04083 
 H                     2.21615   1.26572   0.13657 
 N                    -2.3317    1.41903  -0.05096 
 H                    -2.21407  -1.30543  -0.14669 
 H                    -0.15024  -2.57844  -0.10609 
 H                    -3.21053   0.94506  -0.10581 
 H                     2.30595  -2.45762   0.00272 
 C                     0.1654    3.00821   0.11387 
 O                    -0.90549   3.66876   0.0928 
 O                     1.42213   3.686     0.19232 
 H                     1.35003   4.54397  -0.23229 
 

 GradGradGradGradGradGradGradGradGradGradGradGradGradGradGradGradGradGrad
 Berny optimization.
 Initialization pass.
                           ----------------------------
                           !    Initial Parameters    !
                           ! (Angstroms and Degrees)  !
 --------------------------                            --------------------------
 ! Name  Definition              Value          Derivative Info.                !
 --------------------------------------------------------------------------------
 ! R1    R(1,2)                  1.54           estimate D2E/DX2                !
 ! R2    R(1,6)                  1.54           estimate D2E/DX2                !
 ! R3    R(1,7)                  1.2936         estimate D2E/DX2                !
 ! R4    R(2,3)                  1.3552         estimate D2E/DX2                !
 ! R5    R(2,8)                  1.07           estimate D2E/DX2                !
 ! R6    R(3,4)                  1.54           estimate D2E/DX2                !
 ! R7    R(3,14)                 1.54           estimate D2E/DX2                !
 ! R8    R(4,5)                  1.54           estimate D2E/DX2                !
 ! R9    R(4,9)                  1.2936         estimate D2E/DX2                !
 ! R10   R(5,6)                  1.3552         estimate D2E/DX2                !
 ! R11   R(5,10)                 1.07           estimate D2E/DX2                !
 ! R12   R(6,11)                 1.07           estimate D2E/DX2                !
 ! R13   R(7,13)                 1.0            estimate D2E/DX2                !
 ! R14   R(9,12)                 1.0            estimate D2E/DX2                !
 ! R15   R(14,15)                1.2584         estimate D2E/DX2                !
 ! R16   R(14,16)                1.43           estimate D2E/DX2                !
 ! R17   R(16,17)                0.96           estimate D2E/DX2                !
 ! A1    A(2,1,6)              120.0            estimate D2E/DX2                !
 ! A2    A(2,1,7)              120.0            estimate D2E/DX2                !
 ! A3    A(6,1,7)              120.0            estimate D2E/DX2                !
 ! A4    A(1,2,3)              120.0            estimate D2E/DX2                !
 ! A5    A(1,2,8)              120.0            estimate D2E/DX2                !
 ! A6    A(3,2,8)              120.0            estimate D2E/DX2                !
 ! A7    A(2,3,4)              120.0            estimate D2E/DX2                !
 ! A8    A(2,3,14)             120.0            estimate D2E/DX2                !
 ! A9    A(4,3,14)             120.0            estimate D2E/DX2                !
 ! A10   A(3,4,5)              120.0            estimate D2E/DX2                !
 ! A11   A(3,4,9)              120.0            estimate D2E/DX2                !
 ! A12   A(5,4,9)              120.0            estimate D2E/DX2                !
 ! A13   A(4,5,6)              120.0            estimate D2E/DX2                !
 ! A14   A(4,5,10)             120.0            estimate D2E/DX2                !
 ! A15   A(6,5,10)             120.0            estimate D2E/DX2                !
 ! A16   A(1,6,5)              120.0            estimate D2E/DX2                !
 ! A17   A(1,6,11)             120.0            estimate D2E/DX2                !
 ! A18   A(5,6,11)             120.0            estimate D2E/DX2                !
 ! A19   A(1,7,13)             120.0            estimate D2E/DX2                !
 ! A20   A(4,9,12)             120.0            estimate D2E/DX2                !
 ! A21   A(3,14,15)            120.0            estimate D2E/DX2                !
 ! A22   A(3,14,16)            120.0            estimate D2E/DX2                !
 ! A23   A(15,14,16)           120.0            estimate D2E/DX2                !
 ! A24   A(14,16,17)           109.4712         estimate D2E/DX2                !
 ! D1    D(6,1,2,3)              0.0001         estimate D2E/DX2                !
 ! D2    D(6,1,2,8)            180.0            estimate D2E/DX2                !
 ! D3    D(7,1,2,3)            180.0            estimate D2E/DX2                !
 ! D4    D(7,1,2,8)             -0.0002         estimate D2E/DX2                !
 ! D5    D(2,1,6,5)             -0.0001         estimate D2E/DX2                !
 ! D6    D(2,1,6,11)          -180.0            estimate D2E/DX2                !
 ! D7    D(7,1,6,5)            180.0            estimate D2E/DX2                !
 ! D8    D(7,1,6,11)             0.0001         estimate D2E/DX2                !
 ! D9    D(2,1,7,13)          -179.9999         estimate D2E/DX2                !
 ! D10   D(6,1,7,13)             0.0            estimate D2E/DX2                !
 ! D11   D(1,2,3,4)              0.0            estimate D2E/DX2                !
 ! D12   D(1,2,3,14)          -179.9999         estimate D2E/DX2                !
 ! D13   D(8,2,3,4)           -179.9999         estimate D2E/DX2                !
 ! D14   D(8,2,3,14)             0.0002         estimate D2E/DX2                !
 ! D15   D(2,3,4,5)              0.0            estimate D2E/DX2                !
 ! D16   D(2,3,4,9)            180.0            estimate D2E/DX2                !
 ! D17   D(14,3,4,5)           179.9999         estimate D2E/DX2                !
 ! D18   D(14,3,4,9)            -0.0002         estimate D2E/DX2                !
 ! D19   D(2,3,14,15)          179.9999         estimate D2E/DX2                !
 ! D20   D(2,3,14,16)           -0.0001         estimate D2E/DX2                !
 ! D21   D(4,3,14,15)            0.0            estimate D2E/DX2                !
 ! D22   D(4,3,14,16)         -180.0            estimate D2E/DX2                !
 ! D23   D(3,4,5,6)             -0.0001         estimate D2E/DX2                !
 ! D24   D(3,4,5,10)          -180.0            estimate D2E/DX2                !
 ! D25   D(9,4,5,6)            180.0            estimate D2E/DX2                !
 ! D26   D(9,4,5,10)             0.0001         estimate D2E/DX2                !
 ! D27   D(3,4,9,12)          -180.0            estimate D2E/DX2                !
 ! D28   D(5,4,9,12)             0.0            estimate D2E/DX2                !
 ! D29   D(4,5,6,1)              0.0001         estimate D2E/DX2                !
 ! D30   D(4,5,6,11)           180.0            estimate D2E/DX2                !
 ! D31   D(10,5,6,1)          -180.0            estimate D2E/DX2                !
 ! D32   D(10,5,6,11)           -0.0001         estimate D2E/DX2                !
 ! D33   D(3,14,16,17)         150.0            estimate D2E/DX2                !
 ! D34   D(15,14,16,17)        -30.0            estimate D2E/DX2                !
 --------------------------------------------------------------------------------
 Trust Radius=3.00D-01 FncErr=1.00D-07 GrdErr=1.00D-06 EigMax=2.50D+02 EigMin=1.00D-04
 Number of steps in this run=     85 maximum allowed number of steps=    102.
 GradGradGradGradGradGradGradGradGradGradGradGradGradGradGradGradGradGrad

                          Input orientation:                          
 ---------------------------------------------------------------------
 Center     Atomic      Atomic             Coordinates (Angstroms)
 Number     Number       Type             X           Y           Z
 ---------------------------------------------------------------------
      1          6           0        1.232937   -0.779714    0.019174
      2          6           0        1.275803    0.758570    0.077869
      3          6           0        0.122538    1.469929    0.055180
      4          6           0       -1.230857    0.740007   -0.029299
      5          6           0       -1.273723   -0.798277   -0.087995
      6          6           0       -0.120458   -1.509635   -0.065307
      7          7           0        2.333782   -1.458738    0.040831
      8          1           0        2.216149    1.265724    0.136567
      9          7           0       -2.331701    1.419032   -0.050957
     10          1           0       -2.214069   -1.305430   -0.146692
     11          1           0       -0.150241   -2.578443   -0.106088
     12          1           0       -3.210529    0.945056   -0.105813
     13          1           0        2.305946   -2.457623    0.002716
     14          6           0        0.165404    3.008213    0.113873
     15          8           0       -0.905485    3.668761    0.092802
     16          8           0        1.422128    3.685997    0.192317
     17          1           0        1.350028    4.543966   -0.232291
 ---------------------------------------------------------------------
                    Distance matrix (angstroms):
                    1          2          3          4          5
     1  C    0.000000
     2  C    1.540000   0.000000
     3  C    2.509019   1.355200   0.000000
     4  C    2.895200   2.509019   1.540000   0.000000
     5  C    2.509019   2.991884   2.667358   1.540000   0.000000
     6  C    1.540000   2.667358   2.991884   2.509019   1.355200
     7  N    1.293600   2.457060   3.669727   4.188800   3.669727
     8  H    2.272510   1.070000   2.105120   3.490808   4.060755
     9  N    4.188800   3.669727   2.457060   1.293600   2.457060
    10  H    3.490808   4.060755   3.633607   2.272510   1.070000
    11  H    2.272510   3.633607   4.060755   3.490808   2.105120
    12  H    4.768107   4.493962   3.377979   1.991733   2.605906
    13  H    1.991733   3.377979   4.493962   4.768107   3.946605
    14  C    3.936621   2.509019   1.540000   2.667358   4.074457
    15  O    4.936314   3.636956   2.427572   2.949300   4.485834
    16  O    4.473069   2.933315   2.572683   3.970680   5.239742
    17  H    5.330901   3.798806   3.322510   4.601334   5.953524
                    6          7          8          9         10
     6  C    0.000000
     7  N    2.457060   0.000000
     8  H    3.633607   2.728680   0.000000
     9  N    3.669727   5.482400   4.554296   0.000000
    10  H    2.105120   4.554296   5.130097   2.728680   0.000000
    11  H    1.070000   2.728680   4.520653   4.554296   2.425200
    12  H    3.946605   6.044759   5.441545   1.000000   2.461563
    13  H    2.605906   1.000000   3.726834   6.044759   4.666949
    14  C    4.530428   4.965969   2.691159   2.964490   4.933285
    15  O    5.239947   6.065211   3.939683   2.667590   5.149011
    16  O    5.425914   5.227080   2.547804   4.391987   6.184755
    17  H    6.231877   6.088909   3.410732   4.832518   6.850222
                   11         12         13         14         15
    11  H    0.000000
    12  H    4.666949   0.000000
    13  H    2.461563   6.482400   0.000000
    14  C    5.599887   3.962550   5.871086   0.000000
    15  O    6.295832   3.573687   6.917658   1.258400   0.000000
    16  O    6.465648   5.391025   6.209763   1.430000   2.329803
    17  H    7.279797   5.810923   7.070450   1.970203   2.441108
                   16         17
    16  O    0.000000
    17  H    0.960000   0.000000
 Stoichiometry    C7H6N2O2
 Framework group  C1[X(C7H6N2O2)]
 Deg. of freedom    45
 Full point group                 C1      NOp   1
 Largest Abelian subgroup         C1      NOp   1
 Largest concise Abelian subgroup C1      NOp   1
                         Standard orientation:                         
 ---------------------------------------------------------------------
 Center     Atomic      Atomic             Coordinates (Angstroms)
 Number     Number       Type             X           Y           Z
 ---------------------------------------------------------------------
      1          6           0        1.943683   -0.815357   -0.000951
      2          6           0        0.439402   -1.144991   -0.009921
      3          6           0       -0.473727   -0.143612   -0.008844
      4          6           0       -0.007093    1.323954    0.001350
      5          6           0        1.497188    1.653588    0.010321
      6          6           0        2.410317    0.652209    0.009245
      7          7           0        2.815306   -1.771219   -0.001978
      8          1           0        0.115182   -2.164663   -0.017006
      9          7           0       -0.878716    2.279816    0.002378
     10          1           0        1.821408    2.673260    0.017405
     11          1           0        3.455499    0.881240    0.015477
     12          1           0       -0.575707    3.232781    0.008997
     13          1           0        3.792112   -1.557171    0.003848
     14          6           0       -1.978008   -0.473246   -0.017812
     15          8           0       -2.825913    0.456607   -0.016810
     16          8           0       -2.411311   -1.835985   -0.027278
     17          1           0       -3.257411   -1.905863    0.420865
 ---------------------------------------------------------------------
 Rotational constants (GHZ):           1.7489286           0.8751144           0.5835325
 Standard basis: def2TZVP (5D, 7F)
 There are   432 symmetry adapted cartesian basis functions of A   symmetry.
 There are   377 symmetry adapted basis functions of A   symmetry.
   377 basis functions,   609 primitive gaussians,   432 cartesian basis functions
    39 alpha electrons       39 beta electrons
       nuclear repulsion energy       547.2454655814 Hartrees.
 NAtoms=   17 NActive=   17 NUniq=   17 SFac= 1.00D+00 NAtFMM=   60 NAOKFM=F Big=F
 Integral buffers will be    131072 words long.
 Raffenetti 2 integral format.
 Two-electron integral symmetry is turned on.
 One-electron integrals computed using PRISM.
   1 Symmetry operations used in ECPInt.
 ECPInt:  NShTT=   10585 NPrTT=   33156 LenC2=   10026 LenP2D=   23940.
 LDataN:  DoStor=T MaxTD1= 6 Len=  172
 NBasis=   377 RedAO= T EigKep=  1.51D-05  NBF=   377
 NBsUse=   377 1.00D-06 EigRej= -1.00D+00 NBFU=   377
 ExpMin= 9.52D-02 ExpMax= 2.70D+04 ExpMxC= 9.22D+02 IAcc=3 IRadAn=         5 AccDes= 0.00D+00
 Harris functional with IExCor=  402 and IRadAn=       5 diagonalized for initial guess.
 HarFok:  IExCor=  402 AccDes= 0.00D+00 IRadAn=         5 IDoV= 1 UseB2=F ITyADJ=14
 ICtDFT=  3500011 ScaDFX=  1.000000  1.000000  1.000000  1.000000
 FoFCou: FMM=F IPFlag=           0 FMFlag=      100000 FMFlg1=           0
         NFxFlg=           0 DoJE=T BraDBF=F KetDBF=T FulRan=T
         wScrn=  0.000000 ICntrl=       500 IOpCl=  0 I1Cent=   200000004 NGrid=           0
         NMat0=    1 NMatS0=      1 NMatT0=    0 NMatD0=    1 NMtDS0=    0 NMtDT0=    0
 Petite list used in FoFCou.
 Requested convergence on RMS density matrix=1.00D-08 within 128 cycles.
 Requested convergence on MAX density matrix=1.00D-06.
 Requested convergence on             energy=1.00D-06.
 No special actions if energy rises.
 Integral accuracy reduced to 1.0D-05 until final iterations.
 Initial convergence to 1.0D-05 achieved.  Increase integral accuracy.
 SCF Done:  E(RB3LYP) =  -530.436230737     A.U. after   15 cycles
            NFock= 15  Conv=0.84D-08     -V/T= 2.0065

 **********************************************************************

            Population analysis using the SCF density.

 **********************************************************************

 Orbital symmetries:
       Occupied  (A) (A) (A) (A) (A) (A) (A) (A) (A) (A) (A) (A)
                 (A) (A) (A) (A) (A) (A) (A) (A) (A) (A) (A) (A)
                 (A) (A) (A) (A) (A) (A) (A) (A) (A) (A) (A) (A)
                 (A) (A) (A)
       Virtual   (A) (A) (A) (A) (A) (A) (A) (A) (A) (A) (A) (A)
                 (A) (A) (A) (A) (A) (A) (A) (A) (A) (A) (A) (A)
                 (A) (A) (A) (A) (A) (A) (A) (A) (A) (A) (A) (A)
                 (A) (A) (A) (A) (A) (A) (A) (A) (A) (A) (A) (A)
                 (A) (A) (A) (A) (A) (A) (A) (A) (A) (A) (A) (A)
                 (A) (A) (A) (A) (A) (A) (A) (A) (A) (A) (A) (A)
                 (A) (A) (A) (A) (A) (A) (A) (A) (A) (A) (A) (A)
                 (A) (A) (A) (A) (A) (A) (A) (A) (A) (A) (A) (A)
                 (A) (A) (A) (A) (A) (A) (A) (A) (A) (A) (A) (A)
                 (A) (A) (A) (A) (A) (A) (A) (A) (A) (A) (A) (A)
                 (A) (A) (A) (A) (A) (A) (A) (A) (A) (A) (A) (A)
                 (A) (A) (A) (A) (A) (A) (A) (A) (A) (A) (A) (A)
                 (A) (A) (A) (A) (A) (A) (A) (A) (A) (A) (A) (A)
                 (A) (A) (A) (A) (A) (A) (A) (A) (A) (A) (A) (A)
                 (A) (A) (A) (A) (A) (A) (A) (A) (A) (A) (A) (A)
                 (A) (A) (A) (A) (A) (A) (A) (A) (A) (A) (A) (A)
                 (A) (A) (A) (A) (A) (A) (A) (A) (A) (A) (A) (A)
                 (A) (A) (A) (A) (A) (A) (A) (A) (A) (A) (A) (A)
                 (A) (A) (A) (A) (A) (A) (A) (A) (A) (A) (A) (A)
                 (A) (A) (A) (A) (A) (A) (A) (A) (A) (A) (A) (A)
                 (A) (A) (A) (A) (A) (A) (A) (A) (A) (A) (A) (A)
                 (A) (A) (A) (A) (A) (A) (A) (A) (A) (A) (A) (A)
                 (A) (A) (A) (A) (A) (A) (A) (A) (A) (A) (A) (A)
                 (A) (A) (A) (A) (A) (A) (A) (A) (A) (A) (A) (A)
                 (A) (A) (A) (A) (A) (A) (A) (A) (A) (A) (A) (A)
                 (A) (A) (A) (A) (A) (A) (A) (A) (A) (A) (A) (A)
                 (A) (A) (A) (A) (A) (A) (A) (A) (A) (A) (A) (A)
                 (A) (A) (A) (A) (A) (A) (A) (A) (A) (A) (A) (A)
                 (A) (A)
 The electronic state is 1-A.
 Alpha  occ. eigenvalues --  -19.17720 -19.12576 -14.32507 -14.31463 -10.33266
 Alpha  occ. eigenvalues --  -10.26752 -10.26413 -10.24229 -10.22982 -10.22090
 Alpha  occ. eigenvalues --  -10.21914  -1.08406  -1.00503  -0.93117  -0.91726
 Alpha  occ. eigenvalues --   -0.83289  -0.79931  -0.69550  -0.65814  -0.62995
 Alpha  occ. eigenvalues --   -0.60087  -0.55246  -0.53723  -0.49262  -0.48517
 Alpha  occ. eigenvalues --   -0.48012  -0.46425  -0.44954  -0.43736  -0.41077
 Alpha  occ. eigenvalues --   -0.40132  -0.38984  -0.36305  -0.33046  -0.30680
 Alpha  occ. eigenvalues --   -0.30067  -0.28151  -0.27538  -0.25188
 Alpha virt. eigenvalues --   -0.11492  -0.06562  -0.01201   0.01692   0.02591
 Alpha virt. eigenvalues --    0.03133   0.04260   0.06303   0.08571   0.10296
 Alpha virt. eigenvalues --    0.10833   0.10996   0.12516   0.13327   0.15353
 Alpha virt. eigenvalues --    0.17237   0.17693   0.18223   0.20658   0.21248
 Alpha virt. eigenvalues --    0.23120   0.23645   0.24370   0.25416   0.26561
 Alpha virt. eigenvalues --    0.27307   0.27600   0.29423   0.29788   0.30963
 Alpha virt. eigenvalues --    0.31608   0.33264   0.33332   0.33812   0.35192
 Alpha virt. eigenvalues --    0.36603   0.37750   0.38110   0.39213   0.40607
 Alpha virt. eigenvalues --    0.41180   0.42575   0.43172   0.44171   0.44543
 Alpha virt. eigenvalues --    0.45156   0.46073   0.46937   0.48181   0.49290
 Alpha virt. eigenvalues --    0.50562   0.50996   0.51765   0.53380   0.54750
 Alpha virt. eigenvalues --    0.55868   0.57097   0.57731   0.59199   0.59919
 Alpha virt. eigenvalues --    0.60964   0.61628   0.63451   0.65409   0.65660
 Alpha virt. eigenvalues --    0.66533   0.67864   0.69692   0.70110   0.72174
 Alpha virt. eigenvalues --    0.73373   0.75171   0.75949   0.78811   0.79017
 Alpha virt. eigenvalues --    0.81369   0.83116   0.84094   0.87320   0.89139
 Alpha virt. eigenvalues --    0.89813   0.92850   0.94116   0.96396   0.97116
 Alpha virt. eigenvalues --    0.98787   1.00353   1.00717   1.04119   1.06650
 Alpha virt. eigenvalues --    1.07042   1.11647   1.11757   1.13289   1.16382
 Alpha virt. eigenvalues --    1.18329   1.19737   1.20692   1.22447   1.24460
 Alpha virt. eigenvalues --    1.25165   1.26496   1.28099   1.30225   1.31889
 Alpha virt. eigenvalues --    1.33432   1.38063   1.39782   1.40291   1.41592
 Alpha virt. eigenvalues --    1.41891   1.44917   1.45146   1.46915   1.49495
 Alpha virt. eigenvalues --    1.50292   1.52373   1.53042   1.54043   1.54767
 Alpha virt. eigenvalues --    1.55521   1.57074   1.58896   1.59584   1.60580
 Alpha virt. eigenvalues --    1.61244   1.65058   1.65313   1.66514   1.69242
 Alpha virt. eigenvalues --    1.70802   1.75236   1.78519   1.79371   1.81150
 Alpha virt. eigenvalues --    1.84246   1.85418   1.86306   1.88191   1.92088
 Alpha virt. eigenvalues --    1.92575   1.94206   1.96500   1.97044   1.97840
 Alpha virt. eigenvalues --    1.98630   1.98689   2.01266   2.04734   2.06173
 Alpha virt. eigenvalues --    2.07246   2.10339   2.13521   2.15854   2.17208
 Alpha virt. eigenvalues --    2.18017   2.19554   2.20211   2.23702   2.24263
 Alpha virt. eigenvalues --    2.27127   2.32154   2.33696   2.36784   2.37397
 Alpha virt. eigenvalues --    2.38592   2.40933   2.43190   2.46638   2.48476
 Alpha virt. eigenvalues --    2.49118   2.52671   2.53980   2.54552   2.58799
 Alpha virt. eigenvalues --    2.59992   2.63128   2.64717   2.65240   2.65626
 Alpha virt. eigenvalues --    2.67356   2.68457   2.69684   2.71599   2.72622
 Alpha virt. eigenvalues --    2.74699   2.75006   2.76223   2.79088   2.80179
 Alpha virt. eigenvalues --    2.84403   2.86954   2.88183   2.89802   2.91236
 Alpha virt. eigenvalues --    2.92230   2.93716   2.95374   2.99713   3.00748
 Alpha virt. eigenvalues --    3.02031   3.02284   3.03354   3.05252   3.07327
 Alpha virt. eigenvalues --    3.09497   3.10296   3.12631   3.13696   3.14229
 Alpha virt. eigenvalues --    3.15385   3.15997   3.17555   3.18516   3.20505
 Alpha virt. eigenvalues --    3.21399   3.25123   3.26604   3.27362   3.29058
 Alpha virt. eigenvalues --    3.29828   3.31730   3.33232   3.34054   3.34480
 Alpha virt. eigenvalues --    3.34870   3.37084   3.38848   3.39639   3.41279
 Alpha virt. eigenvalues --    3.41647   3.45797   3.47171   3.47795   3.48103
 Alpha virt. eigenvalues --    3.50001   3.54283   3.56387   3.57152   3.62497
 Alpha virt. eigenvalues --    3.65733   3.68698   3.69195   3.69773   3.71733
 Alpha virt. eigenvalues --    3.73153   3.76016   3.80795   3.82948   3.84415
 Alpha virt. eigenvalues --    3.89151   3.89642   3.94612   3.95334   3.97897
 Alpha virt. eigenvalues --    4.03255   4.04882   4.05059   4.06477   4.12505
 Alpha virt. eigenvalues --    4.14694   4.15435   4.18555   4.20645   4.25657
 Alpha virt. eigenvalues --    4.27231   4.30869   4.35991   4.43660   4.47444
 Alpha virt. eigenvalues --    4.49169   4.53277   4.56352   4.62133   4.62713
 Alpha virt. eigenvalues --    4.63090   4.63530   4.71252   4.71854   4.72796
 Alpha virt. eigenvalues --    4.74752   4.77344   4.79819   4.84367   4.85493
 Alpha virt. eigenvalues --    4.90837   4.98144   5.00643   5.01874   5.14692
 Alpha virt. eigenvalues --    5.19521   5.20033   5.21591   5.24400   5.25502
 Alpha virt. eigenvalues --    5.27180   5.28095   5.30259   5.33791   5.38470
 Alpha virt. eigenvalues --    5.43637   5.44675   5.47105   5.49044   5.52873
 Alpha virt. eigenvalues --    5.58778   5.61513   5.66260   5.75660   5.76291
 Alpha virt. eigenvalues --    5.81509   5.84741   5.92426   5.98620   6.21115
 Alpha virt. eigenvalues --    6.24191   6.32367   6.42270   6.49702   6.58169
 Alpha virt. eigenvalues --    6.63129   6.74734   6.81588   6.92950   7.00131
 Alpha virt. eigenvalues --    7.09345   7.19993  22.20155  22.38963  22.67676
 Alpha virt. eigenvalues --   22.74190  22.83896  22.88981  23.19118  31.98288
 Alpha virt. eigenvalues --   32.05464  43.71207  43.84472
          Condensed to atoms (all electrons):
               1          2          3          4          5          6
     1  C    4.714226   0.315754  -0.017047  -0.019301   0.006636   0.365342
     2  C    0.315754   5.218619   0.394598  -0.104637   0.020701  -0.099569
     3  C   -0.017047   0.394598   5.876311   0.050496  -0.181431   0.049270
     4  C   -0.019301  -0.104637   0.050496   5.097682   0.418799  -0.005494
     5  C    0.006636   0.020701  -0.181431   0.418799   5.582838   0.059464
     6  C    0.365342  -0.099569   0.049270  -0.005494   0.059464   5.560963
     7  N    0.683003  -0.037150  -0.003058  -0.003067   0.041189  -0.162468
     8  H   -0.030335   0.395800  -0.033009   0.014734  -0.005205   0.013514
     9  N   -0.001104  -0.000614  -0.095173   0.755111  -0.142410   0.025765
    10  H    0.003378  -0.002035   0.012797  -0.042055   0.375949  -0.004347
    11  H   -0.035764   0.005509  -0.003275   0.005242  -0.013124   0.391718
    12  H   -0.000120  -0.000862   0.041359  -0.094989  -0.036353   0.006879
    13  H   -0.108751   0.016828  -0.002080  -0.000405   0.009328  -0.025219
    14  C   -0.002030  -0.004092   0.106152  -0.076039   0.023185  -0.003938
    15  O   -0.000099   0.003627  -0.126717  -0.016952   0.003305  -0.000189
    16  O   -0.000422   0.035481  -0.164613  -0.007984   0.000219  -0.000014
    17  H   -0.000063  -0.004709   0.022931   0.001181  -0.000001   0.000004
               7          8          9         10         11         12
     1  C    0.683003  -0.030335  -0.001104   0.003378  -0.035764  -0.000120
     2  C   -0.037150   0.395800  -0.000614  -0.002035   0.005509  -0.000862
     3  C   -0.003058  -0.033009  -0.095173   0.012797  -0.003275   0.041359
     4  C   -0.003067   0.014734   0.755111  -0.042055   0.005242  -0.094989
     5  C    0.041189  -0.005205  -0.142410   0.375949  -0.013124  -0.036353
     6  C   -0.162468   0.013514   0.025765  -0.004347   0.391718   0.006879
     7  N    6.382549   0.006065  -0.000018  -0.000664  -0.002627  -0.000001
     8  H    0.006065   0.486986   0.000047   0.000044  -0.000063   0.000004
     9  N   -0.000018   0.000047   6.395150   0.001154  -0.000631   0.322930
    10  H   -0.000664   0.000044   0.001154   0.530307  -0.007583   0.007305
    11  H   -0.002627  -0.000063  -0.000631  -0.007583   0.531073  -0.000189
    12  H   -0.000001   0.000004   0.322930   0.007305  -0.000189   0.558949
    13  H    0.364130  -0.001474  -0.000003  -0.000152   0.003366  -0.000001
    14  C   -0.000433  -0.016406  -0.004896   0.000298   0.000041  -0.002159
    15  O   -0.000000   0.000256  -0.044571   0.000097  -0.000003   0.001682
    16  O   -0.000009   0.009858  -0.000558   0.000005  -0.000000   0.000027
    17  H   -0.000001  -0.000467   0.000167  -0.000001   0.000000  -0.000008
              13         14         15         16         17
     1  C   -0.108751  -0.002030  -0.000099  -0.000422  -0.000063
     2  C    0.016828  -0.004092   0.003627   0.035481  -0.004709
     3  C   -0.002080   0.106152  -0.126717  -0.164613   0.022931
     4  C   -0.000405  -0.076039  -0.016952  -0.007984   0.001181
     5  C    0.009328   0.023185   0.003305   0.000219  -0.000001
     6  C   -0.025219  -0.003938  -0.000189  -0.000014   0.000004
     7  N    0.364130  -0.000433  -0.000000  -0.000009  -0.000001
     8  H   -0.001474  -0.016406   0.000256   0.009858  -0.000467
     9  N   -0.000003  -0.004896  -0.044571  -0.000558   0.000167
    10  H   -0.000152   0.000298   0.000097   0.000005  -0.000001
    11  H    0.003366   0.000041  -0.000003  -0.000000   0.000000
    12  H   -0.000001  -0.002159   0.001682   0.000027  -0.000008
    13  H    0.539893  -0.000034  -0.000000  -0.000000   0.000000
    14  C   -0.000034   4.610076   0.705456   0.409997  -0.025871
    15  O   -0.000000   0.705456   7.829784  -0.083926   0.004547
    16  O   -0.000000   0.409997  -0.083926   7.922617   0.283036
    17  H    0.000000  -0.025871   0.004547   0.283036   0.392598
 Mulliken charges:
               1
     1  C    0.126696
     2  C   -0.153247
     3  C    0.072491
     4  C    0.027678
     5  C   -0.163085
     6  C   -0.171679
     7  N   -0.267439
     8  H    0.159654
     9  N   -0.210345
    10  H    0.125503
    11  H    0.126310
    12  H    0.195547
    13  H    0.204575
    14  C    0.280695
    15  O   -0.276297
    16  O   -0.403711
    17  H    0.326657
 Sum of Mulliken charges =  -0.00000
 Mulliken charges with hydrogens summed into heavy atoms:
               1
     1  C    0.126696
     2  C    0.006406
     3  C    0.072491
     4  C    0.027678
     5  C   -0.037583
     6  C   -0.045369
     7  N   -0.062864
     9  N   -0.014798
    14  C    0.280695
    15  O   -0.276297
    16  O   -0.077054
 Electronic spatial extent (au):  <R**2>=           1808.5632
 Charge=             -0.0000 electrons
 Dipole moment (field-independent basis, Debye):
    X=              3.3847    Y=              0.9339    Z=              0.7430  Tot=              3.5890
 Quadrupole moment (field-independent basis, Debye-Ang):
   XX=            -58.8330   YY=            -61.6870   ZZ=            -64.5444
   XY=             13.7107   XZ=             -2.6990   YZ=             -1.5221
 Traceless Quadrupole moment (field-independent basis, Debye-Ang):
   XX=              2.8551   YY=              0.0011   ZZ=             -2.8563
   XY=             13.7107   XZ=             -2.6990   YZ=             -1.5221
 Octapole moment (field-independent basis, Debye-Ang**2):
  XXX=             24.4975  YYY=             36.6630  ZZZ=              0.3365  XYY=            -13.9016
  XXY=            -22.2113  XXZ=              9.9215  XZZ=            -11.1967  YZZ=             -3.0912
  YYZ=              3.3681  XYZ=              5.6152
 Hexadecapole moment (field-independent basis, Debye-Ang**3):
 XXXX=          -1242.8798 YYYY=           -730.7447 ZZZZ=            -68.4112 XXXY=            113.7560
 XXXZ=            -33.0092 YYYX=             75.8034 YYYZ=             -6.4139 ZZZX=             -1.7391
 ZZZY=             -1.1761 XXYY=           -377.4233 XXZZ=           -260.9772 YYZZ=           -150.6643
 XXYZ=            -19.6143 YYXZ=            -11.2112 ZZXY=              4.3469
 N-N= 5.472454655814D+02 E-N=-2.332919532155D+03  KE= 5.270358137212D+02
   1 Symmetry operations used in ECPInt.
 ECPInt:  NShTT=   10585 NPrTT=   33156 LenC2=   10026 LenP2D=   23940.
 LDataN:  DoStor=T MaxTD1= 7 Len=  274
 Calling FoFJK, ICntrl=      2127 FMM=F ISym2X=0 I1Cent= 0 IOpClX= 0 NMat=1 NMatS=1 NMatT=0.
 ***** Axes restored to original set *****
 -------------------------------------------------------------------
 Center     Atomic                   Forces (Hartrees/Bohr)
 Number     Number              X              Y              Z
 -------------------------------------------------------------------
      1        6          -0.002366057   -0.024955044   -0.001108276
      2        6          -0.028546264   -0.035167705   -0.002696458
      3        6           0.003628642    0.002363120    0.002817409
      4        6          -0.032745555   -0.005549871   -0.001145698
      5        6           0.047457466    0.024877439    0.002906145
      6        6           0.002267196    0.050060746    0.001966797
      7        7           0.001010485    0.048536608    0.001781967
      8        1           0.009539880   -0.001892460    0.000241027
      9        7           0.039395390    0.010334991    0.001964625
     10        1          -0.010979852    0.002532806   -0.000398058
     11        1           0.006567429   -0.009057809   -0.000046303
     12        1          -0.005002411   -0.020542137   -0.000953667
     13        1          -0.014443899   -0.012976722   -0.001047787
     14        6          -0.062445024    0.049869225   -0.002417979
     15        8           0.080100171   -0.035166565   -0.000889675
     16        8          -0.023148803   -0.049973181   -0.002472464
     17        1          -0.010288795    0.006706558    0.001498397
 -------------------------------------------------------------------
 Cartesian Forces:  Max     0.080100171 RMS     0.024910796

 GradGradGradGradGradGradGradGradGradGradGradGradGradGradGradGradGradGrad
 Berny optimization.
 FormGI is forming the generalized inverse of G from B-inverse, IUseBI=4.
 Internal  Forces:  Max     0.086609170 RMS     0.018865950
 Search for a local minimum.
 Step number   1 out of a maximum of   85
 All quantities printed in internal units (Hartrees-Bohrs-Radians)
 Mixed Optimization -- RFO/linear search
 Second derivative matrix not updated -- first step.
 ITU=  0
     Eigenvalues ---    0.00237   0.00237   0.00490   0.00590   0.00809
     Eigenvalues ---    0.00931   0.01139   0.01295   0.01307   0.01456
     Eigenvalues ---    0.01801   0.01854   0.03099   0.03099   0.16000
     Eigenvalues ---    0.16000   0.16000   0.16000   0.16000   0.16000
     Eigenvalues ---    0.22336   0.23434   0.24599   0.25000   0.25000
     Eigenvalues ---    0.25000   0.25000   0.25000   0.27835   0.28210
     Eigenvalues ---    0.28519   0.28519   0.28519   0.37230   0.37230
     Eigenvalues ---    0.37230   0.40989   0.47688   0.47688   0.50846
     Eigenvalues ---    0.53930   0.55473   0.69002   0.69002   0.80209
 RFO step:  Lambda=-6.33161052D-02 EMin= 2.36824223D-03
 Linear search not attempted -- first point.
 Maximum step size (   0.300) exceeded in Quadratic search.
    -- Step size scaled by   0.718
 Iteration  1 RMS(Cart)=  0.09356248 RMS(Int)=  0.00359023
 Iteration  2 RMS(Cart)=  0.00455196 RMS(Int)=  0.00002187
 Iteration  3 RMS(Cart)=  0.00001094 RMS(Int)=  0.00002123
 Iteration  4 RMS(Cart)=  0.00000000 RMS(Int)=  0.00002123
 Variable       Old X    -DE/DX   Delta X   Delta X   Delta X     New X
                                 (Linear)    (Quad)   (Total)
    R1        2.91018  -0.04501   0.00000  -0.09268  -0.09272   2.81746
    R2        2.91018  -0.03993   0.00000  -0.08279  -0.08281   2.82737
    R3        2.44455  -0.03009   0.00000  -0.02866  -0.02866   2.41589
    R4        2.56096  -0.01072   0.00000  -0.01244  -0.01246   2.54850
    R5        2.02201   0.00750   0.00000   0.01236   0.01236   2.03436
    R6        2.91018  -0.02653   0.00000  -0.05406  -0.05405   2.85613
    R7        2.91018  -0.02913   0.00000  -0.05999  -0.05999   2.85018
    R8        2.91018  -0.03490   0.00000  -0.07186  -0.07182   2.83836
    R9        2.44455  -0.03464   0.00000  -0.03300  -0.03300   2.41155
   R10        2.56096  -0.01903   0.00000  -0.02300  -0.02297   2.53799
   R11        2.02201   0.00847   0.00000   0.01395   0.01395   2.03596
   R12        2.02201   0.00887   0.00000   0.01461   0.01461   2.03661
   R13        1.88973   0.01340   0.00000   0.01781   0.01781   1.90753
   R14        1.88973   0.01418   0.00000   0.01884   0.01884   1.90857
   R15        2.37803  -0.08661   0.00000  -0.07182  -0.07182   2.30621
   R16        2.70231  -0.04995   0.00000  -0.07574  -0.07574   2.62656
   R17        1.81414   0.00610   0.00000   0.00709   0.00709   1.82122
    A1        2.09440  -0.01304   0.00000  -0.03166  -0.03171   2.06268
    A2        2.09440  -0.00858   0.00000  -0.01876  -0.01873   2.07566
    A3        2.09440   0.02162   0.00000   0.05042   0.05045   2.14484
    A4        2.09440   0.01200   0.00000   0.02998   0.02992   2.12431
    A5        2.09440  -0.01226   0.00000  -0.03512  -0.03509   2.05931
    A6        2.09440   0.00027   0.00000   0.00514   0.00517   2.09957
    A7        2.09440   0.00198   0.00000   0.00479   0.00478   2.09917
    A8        2.09440  -0.01569   0.00000  -0.03606  -0.03605   2.05834
    A9        2.09440   0.01371   0.00000   0.03127   0.03128   2.12567
   A10        2.09440  -0.01886   0.00000  -0.04365  -0.04359   2.05080
   A11        2.09440   0.01281   0.00000   0.02956   0.02953   2.12393
   A12        2.09440   0.00605   0.00000   0.01409   0.01406   2.10846
   A13        2.09440   0.01224   0.00000   0.02891   0.02897   2.12337
   A14        2.09440  -0.01364   0.00000  -0.03863  -0.03866   2.05573
   A15        2.09440   0.00141   0.00000   0.00972   0.00969   2.10409
   A16        2.09440   0.00569   0.00000   0.01163   0.01164   2.10604
   A17        2.09440  -0.00974   0.00000  -0.02798  -0.02799   2.06641
   A18        2.09440   0.00405   0.00000   0.01635   0.01635   2.11074
   A19        2.09440  -0.02662   0.00000  -0.08555  -0.08555   2.00885
   A20        2.09440  -0.02968   0.00000  -0.09538  -0.09538   1.99901
   A21        2.09440   0.03394   0.00000   0.07774   0.07774   2.17213
   A22        2.09440  -0.03940   0.00000  -0.09024  -0.09024   2.00416
   A23        2.09440   0.00546   0.00000   0.01250   0.01250   2.10689
   A24        1.91063  -0.01504   0.00000  -0.04833  -0.04833   1.86231
    D1        0.00000  -0.00003   0.00000  -0.00025  -0.00025  -0.00025
    D2        3.14159   0.00004   0.00000   0.00034   0.00033  -3.14126
    D3        3.14159  -0.00002   0.00000  -0.00016  -0.00016   3.14143
    D4       -0.00000   0.00005   0.00000   0.00043   0.00042   0.00042
    D5       -0.00000   0.00003   0.00000   0.00027   0.00027   0.00027
    D6       -3.14159   0.00001   0.00000   0.00008   0.00008  -3.14151
    D7        3.14159   0.00002   0.00000   0.00018   0.00017  -3.14142
    D8        0.00000  -0.00000   0.00000  -0.00001  -0.00002  -0.00001
    D9       -3.14159  -0.00004   0.00000  -0.00033  -0.00033   3.14126
   D10       -0.00000  -0.00003   0.00000  -0.00024  -0.00024  -0.00024
   D11       -0.00000   0.00001   0.00000   0.00014   0.00014   0.00014
   D12       -3.14159   0.00003   0.00000   0.00029   0.00029  -3.14130
   D13       -3.14159  -0.00005   0.00000  -0.00045  -0.00046   3.14114
   D14        0.00000  -0.00003   0.00000  -0.00030  -0.00031  -0.00030
   D15        0.00000  -0.00000   0.00000  -0.00004  -0.00004  -0.00004
   D16        3.14159   0.00004   0.00000   0.00038   0.00038  -3.14121
   D17        3.14159  -0.00002   0.00000  -0.00019  -0.00020   3.14139
   D18       -0.00000   0.00002   0.00000   0.00023   0.00022   0.00022
   D19        3.14159  -0.00024   0.00000  -0.00272  -0.00270   3.13889
   D20       -0.00000  -0.00061   0.00000  -0.00652  -0.00655  -0.00655
   D21        0.00000  -0.00023   0.00000  -0.00257  -0.00255  -0.00255
   D22       -3.14159  -0.00059   0.00000  -0.00637  -0.00640   3.13520
   D23       -0.00000   0.00001   0.00000   0.00006   0.00006   0.00006
   D24       -3.14159   0.00002   0.00000   0.00018   0.00018  -3.14142
   D25        3.14159  -0.00004   0.00000  -0.00036  -0.00036   3.14123
   D26        0.00000  -0.00002   0.00000  -0.00024  -0.00024  -0.00024
   D27       -3.14159  -0.00001   0.00000  -0.00010  -0.00010   3.14149
   D28       -0.00000   0.00004   0.00000   0.00033   0.00033   0.00033
   D29        0.00000  -0.00002   0.00000  -0.00018  -0.00018  -0.00018
   D30        3.14159   0.00000   0.00000   0.00002   0.00002  -3.14158
   D31       -3.14159  -0.00003   0.00000  -0.00030  -0.00030   3.14130
   D32       -0.00000  -0.00001   0.00000  -0.00010  -0.00010  -0.00011
   D33        2.61799   0.00605   0.00000   0.05713   0.05708   2.67507
   D34       -0.52360   0.00569   0.00000   0.05333   0.05338  -0.47021
         Item               Value     Threshold  Converged?
 Maximum Force            0.086609     0.000450     NO 
 RMS     Force            0.018866     0.000300     NO 
 Maximum Displacement     0.397866     0.001800     NO 
 RMS     Displacement     0.093350     0.001200     NO 
 Predicted change in Energy=-3.217769D-02
 GradGradGradGradGradGradGradGradGradGradGradGradGradGradGradGradGradGrad

                          Input orientation:                          
 ---------------------------------------------------------------------
 Center     Atomic      Atomic             Coordinates (Angstroms)
 Number     Number       Type             X           Y           Z
 ---------------------------------------------------------------------
      1          6           0        1.216707   -0.726514    0.016827
      2          6           0        1.209497    0.763468    0.069666
      3          6           0        0.059778    1.468049    0.048463
      4          6           0       -1.270035    0.754115   -0.030393
      5          6           0       -1.249419   -0.746817   -0.082955
      6          6           0       -0.097605   -1.437191   -0.061142
      7          7           0        2.337722   -1.340668    0.039916
      8          1           0        2.156914    1.271630    0.125405
      9          7           0       -2.374085    1.393731   -0.052482
     10          1           0       -2.194828   -1.260406   -0.139400
     11          1           0       -0.096406   -2.514240   -0.099422
     12          1           0       -3.196203    0.809554   -0.106355
     13          1           0        2.275243   -2.347435    0.001813
     14          6           0        0.151865    2.972410    0.105422
     15          8           0       -0.809495    3.724030    0.090723
     16          8           0        1.445207    3.475456    0.183422
     17          1           0        1.422798    4.358226   -0.202621
 ---------------------------------------------------------------------
                    Distance matrix (angstroms):
                    1          2          3          4          5
     1  C    0.000000
     2  C    1.490936   0.000000
     3  C    2.481046   1.348606   0.000000
     4  C    2.894542   2.481567   1.511397   0.000000
     5  C    2.468227   2.889727   2.576218   1.501994   0.000000
     6  C    1.496181   2.562914   2.911564   2.485429   1.343044
     7  N    1.278434   2.387711   3.616351   4.172405   3.638040
     8  H    2.210963   1.076538   2.107720   3.469304   3.964927
     9  N    4.170615   3.640634   2.437089   1.276137   2.418212
    10  H    3.456590   3.966006   3.544433   2.219329   1.077385
    11  H    2.221203   3.532328   3.988093   3.473372   2.110330
    12  H    4.674233   4.409456   3.325507   1.928463   2.492550
    13  H    1.936004   3.289094   4.412299   4.710589   3.872003
    14  C    3.850165   2.449345   1.508253   2.638386   3.978911
    15  O    4.890634   3.583532   2.418031   3.007851   4.495795
    16  O    4.211474   2.724588   2.442808   3.850188   5.015930
    17  H    5.093644   3.611361   3.205307   4.502292   5.763379
                    6          7          8          9         10
     6  C    0.000000
     7  N    2.439333   0.000000
     8  H    3.529216   2.619943   0.000000
     9  N    3.632707   5.448541   4.536134   0.000000
    10  H    2.106115   4.536806   5.041725   2.661603   0.000000
    11  H    1.077730   2.705857   4.411441   4.523523   2.444805
    12  H    3.827691   5.938786   5.378020   1.009972   2.299691
    13  H    2.542227   1.009423   3.623107   5.967875   4.602512
    14  C    4.419792   4.835794   2.629311   2.982883   4.845992
    15  O    5.212299   5.963114   3.849033   2.810471   5.178485
    16  O    5.155015   4.900227   2.316623   4.356170   5.981844
    17  H    5.993205   5.776964   3.189609   4.819450   6.682832
                   11         12         13         14         15
    11  H    0.000000
    12  H    4.544931   0.000000
    13  H    2.379662   6.317833   0.000000
    14  C    5.496083   3.991536   5.728894   0.000000
    15  O    6.281773   3.772187   6.810742   1.220394   0.000000
    16  O    6.191367   5.360382   5.884556   1.389918   2.270256
    17  H    7.039135   5.825592   6.762718   1.905426   2.339099
                   16         17
    16  O    0.000000
    17  H    0.963750   0.000000
 Stoichiometry    C7H6N2O2
 Framework group  C1[X(C7H6N2O2)]
 Deg. of freedom    45
 Full point group                 C1      NOp   1
 Largest Abelian subgroup         C1      NOp   1
 Largest concise Abelian subgroup C1      NOp   1
                         Standard orientation:                         
 ---------------------------------------------------------------------
 Center     Atomic      Atomic             Coordinates (Angstroms)
 Number     Number       Type             X           Y           Z
 ---------------------------------------------------------------------
      1          6           0        1.902748   -0.785158   -0.000455
      2          6           0        0.440478   -1.076023   -0.007741
      3          6           0       -0.478663   -0.089150   -0.007146
      4          6           0       -0.042806    1.358014    0.000860
      5          6           0        1.432859    1.637914    0.008025
      6          6           0        2.338487    0.646144    0.007333
      7          7           0        2.727534   -1.761949   -0.001212
      8          1           0        0.130431   -2.106934   -0.013019
      9          7           0       -0.889174    2.313099    0.002022
     10          1           0        1.748639    2.667965    0.013914
     11          1           0        3.394705    0.860332    0.012537
     12          1           0       -0.479703    3.236323    0.007702
     13          1           0        3.702193   -1.499364    0.003635
     14          6           0       -1.935302   -0.480275   -0.014459
     15          8           0       -2.863090    0.312547   -0.011999
     16          8           0       -2.171824   -1.849838   -0.029426
     17          1           0       -3.032286   -1.986836    0.382461
 ---------------------------------------------------------------------
 Rotational constants (GHZ):           1.7585959           0.9295068           0.6083381
 Standard basis: def2TZVP (5D, 7F)
 There are   432 symmetry adapted cartesian basis functions of A   symmetry.
 There are   377 symmetry adapted basis functions of A   symmetry.
   377 basis functions,   609 primitive gaussians,   432 cartesian basis functions
    39 alpha electrons       39 beta electrons
       nuclear repulsion energy       557.2324954180 Hartrees.
 NAtoms=   17 NActive=   17 NUniq=   17 SFac= 1.00D+00 NAtFMM=   60 NAOKFM=F Big=F
 Integral buffers will be    131072 words long.
 Raffenetti 2 integral format.
 Two-electron integral symmetry is turned on.
 One-electron integrals computed using PRISM.
   1 Symmetry operations used in ECPInt.
 ECPInt:  NShTT=   10585 NPrTT=   33156 LenC2=   10063 LenP2D=   24148.
 LDataN:  DoStor=T MaxTD1= 6 Len=  172
 NBasis=   377 RedAO= T EigKep=  1.23D-05  NBF=   377
 NBsUse=   377 1.00D-06 EigRej= -1.00D+00 NBFU=   377
 Initial guess from the checkpoint file:  "C6H4-NH-2.chk"
 B after Tr=    -0.000000    0.000000    0.000000
         Rot=    0.999959   -0.000127   -0.000095   -0.009022 Ang=  -1.03 deg.
 ExpMin= 9.52D-02 ExpMax= 2.70D+04 ExpMxC= 9.22D+02 IAcc=2 IRadAn=         4 AccDes= 0.00D+00
 Harris functional with IExCor=  402 and IRadAn=       4 diagonalized for initial guess.
 HarFok:  IExCor=  402 AccDes= 0.00D+00 IRadAn=         4 IDoV= 1 UseB2=F ITyADJ=14
 ICtDFT=  3500011 ScaDFX=  1.000000  1.000000  1.000000  1.000000
 FoFCou: FMM=F IPFlag=           0 FMFlag=      100000 FMFlg1=           0
         NFxFlg=           0 DoJE=T BraDBF=F KetDBF=T FulRan=T
         wScrn=  0.000000 ICntrl=       500 IOpCl=  0 I1Cent=   200000004 NGrid=           0
         NMat0=    1 NMatS0=      1 NMatT0=    0 NMatD0=    1 NMtDS0=    0 NMtDT0=    0
 Petite list used in FoFCou.
 Requested convergence on RMS density matrix=1.00D-08 within 128 cycles.
 Requested convergence on MAX density matrix=1.00D-06.
 Requested convergence on             energy=1.00D-06.
 No special actions if energy rises.
 Integral accuracy reduced to 1.0D-05 until final iterations.
 Initial convergence to 1.0D-05 achieved.  Increase integral accuracy.
 SCF Done:  E(RB3LYP) =  -530.468460048     A.U. after   14 cycles
            NFock= 14  Conv=0.50D-08     -V/T= 2.0053
   1 Symmetry operations used in ECPInt.
 ECPInt:  NShTT=   10585 NPrTT=   33156 LenC2=   10063 LenP2D=   24148.
 LDataN:  DoStor=T MaxTD1= 7 Len=  274
 Calling FoFJK, ICntrl=      2127 FMM=F ISym2X=0 I1Cent= 0 IOpClX= 0 NMat=1 NMatS=1 NMatT=0.
 ***** Axes restored to original set *****
 -------------------------------------------------------------------
 Center     Atomic                   Forces (Hartrees/Bohr)
 Number     Number              X              Y              Z
 -------------------------------------------------------------------
      1        6          -0.010900182   -0.007435070   -0.000620984
      2        6          -0.011465386   -0.018754850   -0.001318663
      3        6           0.000803401    0.000969208    0.002545178
      4        6          -0.004303071   -0.010134852   -0.000105210
      5        6           0.021932973    0.012943843    0.001293241
      6        6           0.002826722    0.021503220    0.000896023
      7        7           0.010732114    0.017190037    0.001005963
      8        1           0.003379435   -0.001883343   -0.000117568
      9        7           0.009534608    0.015040381    0.000884031
     10        1          -0.005144816    0.000979693   -0.000194111
     11        1           0.002513787   -0.004061122   -0.000046347
     12        1          -0.002116713   -0.009798705   -0.000424957
     13        1          -0.006719532   -0.007426837   -0.000516493
     14        6          -0.025634784    0.024839401    0.001656626
     15        8           0.029267402   -0.018747764   -0.003061313
     16        8          -0.011417594   -0.021167594   -0.006980420
     17        1          -0.003288363    0.005944353    0.005105002
 -------------------------------------------------------------------
 Cartesian Forces:  Max     0.029267402 RMS     0.010936501

 GradGradGradGradGradGradGradGradGradGradGradGradGradGradGradGradGradGrad
 Berny optimization.
 Using GEDIIS/GDIIS optimizer.
 FormGI is forming the generalized inverse of G from B-inverse, IUseBI=4.
 Internal  Forces:  Max     0.034564153 RMS     0.007572923
 Search for a local minimum.
 Step number   2 out of a maximum of   85
 All quantities printed in internal units (Hartrees-Bohrs-Radians)
 Mixed Optimization -- RFO/linear search
 Update second derivatives using D2CorX and points    1    2
 DE= -3.22D-02 DEPred=-3.22D-02 R= 1.00D+00
 TightC=F SS=  1.41D+00  RLast= 3.10D-01 DXNew= 5.0454D-01 9.3022D-01
 Trust test= 1.00D+00 RLast= 3.10D-01 DXMaxT set to 5.05D-01
 ITU=  1  0
 Use linear search instead of GDIIS.
     Eigenvalues ---    0.00237   0.00237   0.00506   0.00570   0.00839
     Eigenvalues ---    0.00912   0.01178   0.01279   0.01328   0.01486
     Eigenvalues ---    0.01827   0.01880   0.03099   0.03099   0.15780
     Eigenvalues ---    0.16000   0.16000   0.16000   0.16000   0.16427
     Eigenvalues ---    0.21980   0.22842   0.23931   0.24673   0.25000
     Eigenvalues ---    0.25000   0.25000   0.26494   0.27666   0.28100
     Eigenvalues ---    0.28213   0.28519   0.30385   0.37179   0.37230
     Eigenvalues ---    0.37267   0.40892   0.47431   0.47691   0.50625
     Eigenvalues ---    0.54117   0.55445   0.68990   0.72175   0.78260
 RFO step:  Lambda=-6.30358853D-03 EMin= 2.36810133D-03
 Quartic linear search produced a step of  0.55359.
 Iteration  1 RMS(Cart)=  0.05772545 RMS(Int)=  0.01953161
 Iteration  2 RMS(Cart)=  0.02080452 RMS(Int)=  0.00130993
 Iteration  3 RMS(Cart)=  0.00129831 RMS(Int)=  0.00002817
 Iteration  4 RMS(Cart)=  0.00000263 RMS(Int)=  0.00002812
 Iteration  5 RMS(Cart)=  0.00000000 RMS(Int)=  0.00002812
 Variable       Old X    -DE/DX   Delta X   Delta X   Delta X     New X
                                 (Linear)    (Quad)   (Total)
    R1        2.81746  -0.01817  -0.05133  -0.01128  -0.06265   2.75481
    R2        2.82737  -0.01860  -0.04584  -0.02359  -0.06944   2.75793
    R3        2.41589  -0.00116  -0.01587   0.01942   0.00355   2.41944
    R4        2.54850  -0.00079  -0.00690   0.00819   0.00126   2.54975
    R5        2.03436   0.00208   0.00684  -0.00208   0.00476   2.03912
    R6        2.85613  -0.01626  -0.02992  -0.03621  -0.06612   2.79001
    R7        2.85018  -0.00991  -0.03321   0.00226  -0.03095   2.81923
    R8        2.83836  -0.01541  -0.03976  -0.01646  -0.05617   2.78218
    R9        2.41155  -0.00380  -0.01827   0.01690  -0.00137   2.41018
   R10        2.53799  -0.00700  -0.01272  -0.00203  -0.01472   2.52327
   R11        2.03596   0.00406   0.00773   0.00462   0.01234   2.04831
   R12        2.03661   0.00406   0.00809   0.00408   0.01217   2.04878
   R13        1.90753   0.00784   0.00986   0.01058   0.02044   1.92797
   R14        1.90857   0.00741   0.01043   0.00837   0.01880   1.92737
   R15        2.30621  -0.03456  -0.03976  -0.01196  -0.05172   2.25449
   R16        2.62656  -0.01930  -0.04193  -0.00816  -0.05010   2.57647
   R17        1.82122   0.00348   0.00392   0.00395   0.00788   1.82910
    A1        2.06268  -0.00687  -0.01756  -0.01302  -0.03063   2.03205
    A2        2.07566  -0.00329  -0.01037  -0.00128  -0.01163   2.06404
    A3        2.14484   0.01017   0.02793   0.01430   0.04226   2.18710
    A4        2.12431   0.00621   0.01656   0.01329   0.02977   2.15409
    A5        2.05931  -0.00642  -0.01943  -0.01527  -0.03466   2.02465
    A6        2.09957   0.00021   0.00286   0.00198   0.00488   2.10445
    A7        2.09917  -0.00026   0.00264  -0.00555  -0.00292   2.09625
    A8        2.05834   0.00237  -0.01996   0.04811   0.02816   2.08650
    A9        2.12567  -0.00210   0.01732  -0.04256  -0.02524   2.10043
   A10        2.05080  -0.00750  -0.02413  -0.00504  -0.02911   2.02169
   A11        2.12393   0.00024   0.01635  -0.02595  -0.00963   2.11430
   A12        2.10846   0.00726   0.00778   0.03098   0.03874   2.14720
   A13        2.12337   0.00646   0.01604   0.01212   0.02823   2.15159
   A14        2.05573  -0.00661  -0.02140  -0.01079  -0.03223   2.02350
   A15        2.10409   0.00014   0.00537  -0.00132   0.00401   2.10809
   A16        2.10604   0.00197   0.00645  -0.00180   0.00467   2.11070
   A17        2.06641  -0.00354  -0.01549   0.00154  -0.01396   2.05244
   A18        2.11074   0.00158   0.00905   0.00026   0.00930   2.12004
   A19        2.00885  -0.01192  -0.04736  -0.01655  -0.06391   1.94494
   A20        1.99901  -0.01291  -0.05280  -0.01488  -0.06768   1.93134
   A21        2.17213   0.01094   0.04303  -0.00766   0.03537   2.20750
   A22        2.00416  -0.01486  -0.04995  -0.00407  -0.05403   1.95013
   A23        2.10689   0.00391   0.00692   0.01173   0.01865   2.12554
   A24        1.86231  -0.00308  -0.02675   0.02455  -0.00221   1.86010
    D1       -0.00025   0.00002  -0.00014   0.00325   0.00309   0.00284
    D2       -3.14126   0.00008   0.00018   0.00494   0.00506  -3.13620
    D3        3.14143  -0.00001  -0.00009   0.00033   0.00030  -3.14145
    D4        0.00042   0.00005   0.00024   0.00202   0.00227   0.00269
    D5        0.00027   0.00000   0.00015  -0.00207  -0.00192  -0.00165
    D6       -3.14151  -0.00002   0.00004  -0.00267  -0.00262   3.13905
    D7       -3.14142   0.00003   0.00010   0.00097   0.00109  -3.14033
    D8       -0.00001   0.00001  -0.00001   0.00038   0.00039   0.00038
    D9        3.14126   0.00000  -0.00018   0.00174   0.00158  -3.14034
   D10       -0.00024  -0.00003  -0.00013  -0.00132  -0.00148  -0.00171
   D11        0.00014  -0.00002   0.00008  -0.00122  -0.00112  -0.00098
   D12       -3.14130  -0.00005   0.00016  -0.00472  -0.00460   3.13729
   D13        3.14114  -0.00008  -0.00025  -0.00295  -0.00319   3.13795
   D14       -0.00030  -0.00011  -0.00017  -0.00645  -0.00667  -0.00697
   D15       -0.00004  -0.00000  -0.00002  -0.00188  -0.00190  -0.00194
   D16       -3.14121   0.00001   0.00021  -0.00171  -0.00149   3.14048
   D17        3.14139   0.00003  -0.00011   0.00177   0.00161  -3.14018
   D18        0.00022   0.00004   0.00012   0.00194   0.00201   0.00223
   D19        3.13889  -0.00033  -0.00149  -0.03643  -0.03790   3.10099
   D20       -0.00655  -0.00054  -0.00363  -0.03671  -0.04036  -0.04691
   D21       -0.00255  -0.00036  -0.00141  -0.03999  -0.04138  -0.04393
   D22        3.13520  -0.00057  -0.00354  -0.04027  -0.04384   3.09136
   D23        0.00006   0.00003   0.00003   0.00306   0.00308   0.00314
   D24       -3.14142   0.00002   0.00010   0.00218   0.00229  -3.13913
   D25        3.14123   0.00001  -0.00020   0.00288   0.00266  -3.13929
   D26       -0.00024   0.00000  -0.00013   0.00200   0.00186   0.00162
   D27        3.14149  -0.00000  -0.00006  -0.00016  -0.00023   3.14126
   D28        0.00033   0.00002   0.00018   0.00002   0.00022   0.00055
   D29       -0.00018  -0.00003  -0.00010  -0.00105  -0.00114  -0.00132
   D30       -3.14158  -0.00001   0.00001  -0.00044  -0.00041   3.14120
   D31        3.14130  -0.00002  -0.00016  -0.00015  -0.00031   3.14098
   D32       -0.00011   0.00000  -0.00006   0.00047   0.00042   0.00031
   D33        2.67507   0.00669   0.03160   0.28412   0.31567   2.99074
   D34       -0.47021   0.00651   0.02955   0.28380   0.31340  -0.15682
         Item               Value     Threshold  Converged?
 Maximum Force            0.034564     0.000450     NO 
 RMS     Force            0.007573     0.000300     NO 
 Maximum Displacement     0.425746     0.001800     NO 
 RMS     Displacement     0.073284     0.001200     NO 
 Predicted change in Energy=-1.062317D-02
 GradGradGradGradGradGradGradGradGradGradGradGradGradGradGradGradGradGrad

                          Input orientation:                          
 ---------------------------------------------------------------------
 Center     Atomic      Atomic             Coordinates (Angstroms)
 Number     Number       Type             X           Y           Z
 ---------------------------------------------------------------------
      1          6           0        1.214899   -0.727045    0.008007
      2          6           0        1.187037    0.730298    0.030369
      3          6           0        0.047283    1.452176    0.010733
      4          6           0       -1.260960    0.769536   -0.037037
      5          6           0       -1.216294   -0.701826   -0.062930
      6          6           0       -0.078774   -1.400760   -0.041687
      7          7           0        2.353560   -1.311998    0.029942
      8          1           0        2.147339    1.221405    0.061877
      9          7           0       -2.350490    1.432316   -0.055047
     10          1           0       -2.175772   -1.204689   -0.100411
     11          1           0       -0.080080   -2.484749   -0.061427
     12          1           0       -3.153282    0.804104   -0.088382
     13          1           0        2.251803   -2.326950    0.009854
     14          6           0        0.119378    2.941980    0.041923
     15          8           0       -0.802127    3.697948   -0.009552
     16          8           0        1.405081    3.383115    0.147980
     17          1           0        1.379053    4.342535    0.022675
 ---------------------------------------------------------------------
                    Distance matrix (angstroms):
                    1          2          3          4          5
     1  C    0.000000
     2  C    1.457780   0.000000
     3  C    2.472315   1.349272   0.000000
     4  C    2.893383   2.449240   1.476408   0.000000
     5  C    2.432358   2.799229   2.498355   1.472268   0.000000
     6  C    1.459435   2.479692   2.856201   2.471391   1.335257
     7  N    1.280313   2.351967   3.599992   4.171574   3.622815
     8  H    2.160741   1.079055   2.113317   3.439546   3.876651
     9  N    4.168790   3.607523   2.398757   1.275411   2.416821
    10  H    3.425865   3.881979   3.466015   2.176801   1.083916
    11  H    2.184334   3.456955   3.939646   3.462000   2.114189
    12  H    4.629764   4.342571   3.267023   1.893334   2.453650
    13  H    1.906534   3.237424   4.375124   4.682941   3.830669
    14  C    3.829237   2.455925   1.491873   2.575088   3.882310
    15  O    4.863051   3.572858   2.401124   2.964267   4.419547
    16  O    4.116937   2.664360   2.364524   3.738021   4.858275
    17  H    5.072258   3.617346   3.182441   4.442922   5.673512
                    6          7          8          9         10
     6  C    0.000000
     7  N    2.435006   0.000000
     8  H    3.441228   2.541983   0.000000
     9  N    3.631417   5.446702   4.504289   0.000000
    10  H    2.106964   4.532478   4.959996   2.643176   0.000000
    11  H    1.084169   2.703016   4.325757   4.527493   2.456013
    12  H    3.783677   5.900610   5.319145   1.019920   2.234037
    13  H    2.508401   1.020238   3.550273   5.942844   4.568923
    14  C    4.348062   4.805002   2.659587   2.896331   4.741607
    15  O    5.149863   5.921105   3.851976   2.744556   5.092250
    16  O    5.012310   4.791412   2.287215   4.236880   5.825131
    17  H    5.925778   5.737898   3.214539   4.731269   6.589661
                   11         12         13         14         15
    11  H    0.000000
    12  H    4.501317   0.000000
    13  H    2.338303   6.247248   0.000000
    14  C    5.431376   3.911240   5.684179   0.000000
    15  O    6.224932   3.729407   6.754722   1.193025   0.000000
    16  O    6.056515   5.242694   5.774154   1.363408   2.235107
    17  H    6.981973   5.751077   6.726358   1.883801   2.274660
                   16         17
    16  O    0.000000
    17  H    0.967919   0.000000
 Stoichiometry    C7H6N2O2
 Framework group  C1[X(C7H6N2O2)]
 Deg. of freedom    45
 Full point group                 C1      NOp   1
 Largest Abelian subgroup         C1      NOp   1
 Largest concise Abelian subgroup C1      NOp   1
                         Standard orientation:                         
 ---------------------------------------------------------------------
 Center     Atomic      Atomic             Coordinates (Angstroms)
 Number     Number       Type             X           Y           Z
 ---------------------------------------------------------------------
      1          6           0        1.926849   -0.712591    0.004836
      2          6           0        0.503972   -1.029654    0.008861
      3          6           0       -0.466334   -0.092098    0.003529
      4          6           0       -0.111386    1.340979   -0.005697
      5          6           0        1.329117    1.645155   -0.005888
      6          6           0        2.276584    0.704304   -0.001808
      7          7           0        2.763826   -1.681425    0.010400
      8          1           0        0.253158   -2.079105    0.019001
      9          7           0       -1.012426    2.243620   -0.012065
     10          1           0        1.591610    2.696798   -0.010252
     11          1           0        3.329768    0.961649   -0.002440
     12          1           0       -0.591187    3.172471   -0.017631
     13          1           0        3.726218   -1.342778    0.008017
     14          6           0       -1.897245   -0.514208    0.002715
     15          8           0       -2.848825    0.204552    0.037206
     16          8           0       -2.023446   -1.870676   -0.051589
     17          1           0       -2.960556   -2.066731    0.090724
 ---------------------------------------------------------------------
 Rotational constants (GHZ):           1.8204122           0.9524953           0.6254352
 Standard basis: def2TZVP (5D, 7F)
 There are   432 symmetry adapted cartesian basis functions of A   symmetry.
 There are   377 symmetry adapted basis functions of A   symmetry.
   377 basis functions,   609 primitive gaussians,   432 cartesian basis functions
    39 alpha electrons       39 beta electrons
       nuclear repulsion energy       564.6508097893 Hartrees.
 NAtoms=   17 NActive=   17 NUniq=   17 SFac= 1.00D+00 NAtFMM=   60 NAOKFM=F Big=F
 Integral buffers will be    131072 words long.
 Raffenetti 2 integral format.
 Two-electron integral symmetry is turned on.
 One-electron integrals computed using PRISM.
   1 Symmetry operations used in ECPInt.
 ECPInt:  NShTT=   10585 NPrTT=   33156 LenC2=   10086 LenP2D=   24272.
 LDataN:  DoStor=T MaxTD1= 6 Len=  172
 NBasis=   377 RedAO= T EigKep=  1.04D-05  NBF=   377
 NBsUse=   377 1.00D-06 EigRej= -1.00D+00 NBFU=   377
 Initial guess from the checkpoint file:  "C6H4-NH-2.chk"
 B after Tr=    -0.000000    0.000000    0.000000
         Rot=    0.999823   -0.000080    0.000088   -0.018791 Ang=  -2.15 deg.
 ExpMin= 9.52D-02 ExpMax= 2.70D+04 ExpMxC= 9.22D+02 IAcc=2 IRadAn=         4 AccDes= 0.00D+00
 Harris functional with IExCor=  402 and IRadAn=       4 diagonalized for initial guess.
 HarFok:  IExCor=  402 AccDes= 0.00D+00 IRadAn=         4 IDoV= 1 UseB2=F ITyADJ=14
 ICtDFT=  3500011 ScaDFX=  1.000000  1.000000  1.000000  1.000000
 FoFCou: FMM=F IPFlag=           0 FMFlag=      100000 FMFlg1=           0
         NFxFlg=           0 DoJE=T BraDBF=F KetDBF=T FulRan=T
         wScrn=  0.000000 ICntrl=       500 IOpCl=  0 I1Cent=   200000004 NGrid=           0
         NMat0=    1 NMatS0=      1 NMatT0=    0 NMatD0=    1 NMtDS0=    0 NMtDT0=    0
 Petite list used in FoFCou.
 Requested convergence on RMS density matrix=1.00D-08 within 128 cycles.
 Requested convergence on MAX density matrix=1.00D-06.
 Requested convergence on             energy=1.00D-06.
 No special actions if energy rises.
 Integral accuracy reduced to 1.0D-05 until final iterations.
 Initial convergence to 1.0D-05 achieved.  Increase integral accuracy.
 SCF Done:  E(RB3LYP) =  -530.477415079     A.U. after   14 cycles
            NFock= 14  Conv=0.72D-08     -V/T= 2.0044
   1 Symmetry operations used in ECPInt.
 ECPInt:  NShTT=   10585 NPrTT=   33156 LenC2=   10086 LenP2D=   24272.
 LDataN:  DoStor=T MaxTD1= 7 Len=  274
 Calling FoFJK, ICntrl=      2127 FMM=F ISym2X=0 I1Cent= 0 IOpClX= 0 NMat=1 NMatS=1 NMatT=0.
 ***** Axes restored to original set *****
 -------------------------------------------------------------------
 Center     Atomic                   Forces (Hartrees/Bohr)
 Number     Number              X              Y              Z
 -------------------------------------------------------------------
      1        6          -0.003187317   -0.000627549   -0.000481269
      2        6          -0.001077082    0.004027690   -0.000156710
      3        6           0.004721395   -0.001635076    0.001353334
      4        6           0.003078391   -0.003787195   -0.000186032
      5        6          -0.002238180    0.000284978   -0.000050845
      6        6          -0.000326321   -0.002332270    0.000012560
      7        7           0.005234177   -0.000176133    0.000169754
      8        1           0.000668317   -0.000084204    0.000162233
      9        7          -0.005817422    0.001272267    0.000157368
     10        1          -0.000449258   -0.000446778   -0.000021529
     11        1          -0.000660423   -0.000269193   -0.000003873
     12        1          -0.001004632   -0.001496075   -0.000062158
     13        1          -0.000637095   -0.001029424    0.000015536
     14        6           0.006942725   -0.001681759    0.002124859
     15        8          -0.006319361    0.008424794   -0.002364972
     16        8           0.002283524   -0.001400003   -0.003399395
     17        1          -0.001211437    0.000955929    0.002731140
 -------------------------------------------------------------------
 Cartesian Forces:  Max     0.008424794 RMS     0.002653712

 GradGradGradGradGradGradGradGradGradGradGradGradGradGradGradGradGradGrad
 Berny optimization.
 Using GEDIIS/GDIIS optimizer.
 FormGI is forming the generalized inverse of G from B-inverse, IUseBI=4.
 Internal  Forces:  Max     0.010322002 RMS     0.002403142
 Search for a local minimum.
 Step number   3 out of a maximum of   85
 All quantities printed in internal units (Hartrees-Bohrs-Radians)
 Mixed Optimization -- RFO/linear search
 Update second derivatives using D2CorX and points    2    3
 DE= -8.96D-03 DEPred=-1.06D-02 R= 8.43D-01
 TightC=F SS=  1.41D+00  RLast= 5.03D-01 DXNew= 8.4853D-01 1.5082D+00
 Trust test= 8.43D-01 RLast= 5.03D-01 DXMaxT set to 8.49D-01
 ITU=  1  1  0
 Use linear search instead of GDIIS.
     Eigenvalues ---    0.00237   0.00237   0.00518   0.00564   0.00862
     Eigenvalues ---    0.00933   0.01208   0.01311   0.01349   0.01510
     Eigenvalues ---    0.01852   0.01901   0.03099   0.03099   0.15815
     Eigenvalues ---    0.16000   0.16000   0.16000   0.16047   0.16481
     Eigenvalues ---    0.21942   0.23092   0.24428   0.24753   0.25000
     Eigenvalues ---    0.25000   0.25228   0.27271   0.27781   0.28016
     Eigenvalues ---    0.28386   0.29671   0.32301   0.37111   0.37232
     Eigenvalues ---    0.37258   0.40841   0.47220   0.47694   0.50520
     Eigenvalues ---    0.54093   0.55423   0.69007   0.72051   0.83163
 RFO step:  Lambda=-2.19336904D-03 EMin= 2.36784315D-03
 Quartic linear search produced a step of -0.00486.
 Iteration  1 RMS(Cart)=  0.04939377 RMS(Int)=  0.00238517
 Iteration  2 RMS(Cart)=  0.00227246 RMS(Int)=  0.00011967
 Iteration  3 RMS(Cart)=  0.00000909 RMS(Int)=  0.00011937
 Iteration  4 RMS(Cart)=  0.00000000 RMS(Int)=  0.00011937
 Variable       Old X    -DE/DX   Delta X   Delta X   Delta X     New X
                                 (Linear)    (Quad)   (Total)
    R1        2.75481   0.00358   0.00030   0.00883   0.00913   2.76394
    R2        2.75793   0.00211   0.00034   0.00381   0.00414   2.76208
    R3        2.41944   0.00464  -0.00002   0.00649   0.00647   2.42591
    R4        2.54975  -0.00060  -0.00001  -0.00120  -0.00119   2.54856
    R5        2.03912   0.00056  -0.00002   0.00176   0.00173   2.04085
    R6        2.79001   0.00760   0.00032   0.02291   0.02323   2.81324
    R7        2.81923   0.00635   0.00015   0.01987   0.02002   2.83925
    R8        2.78218   0.00095   0.00027   0.00053   0.00080   2.78298
    R9        2.41018   0.00571   0.00001   0.00779   0.00780   2.41798
   R10        2.52327   0.00086   0.00007   0.00092   0.00098   2.52425
   R11        2.04831   0.00061  -0.00006   0.00216   0.00210   2.05040
   R12        2.04878   0.00027  -0.00006   0.00128   0.00122   2.05000
   R13        1.92797   0.00109  -0.00010   0.00310   0.00300   1.93097
   R14        1.92737   0.00171  -0.00009   0.00433   0.00424   1.93161
   R15        2.25449   0.01032   0.00025   0.01024   0.01050   2.26499
   R16        2.57647   0.00081   0.00024  -0.00054  -0.00030   2.57617
   R17        1.82910   0.00063  -0.00004   0.00144   0.00140   1.83050
    A1        2.03205   0.00090   0.00015   0.00184   0.00198   2.03403
    A2        2.06404  -0.00119   0.00006  -0.00516  -0.00511   2.05892
    A3        2.18710   0.00029  -0.00021   0.00334   0.00313   2.19023
    A4        2.15409   0.00088  -0.00014   0.00496   0.00483   2.15892
    A5        2.02465  -0.00083   0.00017  -0.00586  -0.00570   2.01895
    A6        2.10445  -0.00005  -0.00002   0.00089   0.00085   2.10530
    A7        2.09625  -0.00241   0.00001  -0.00962  -0.00959   2.08666
    A8        2.08650  -0.00346  -0.00014  -0.01275  -0.01291   2.07359
    A9        2.10043   0.00587   0.00012   0.02239   0.02249   2.12292
   A10        2.02169   0.00101   0.00014   0.00243   0.00255   2.02424
   A11        2.11430   0.00453   0.00005   0.01758   0.01760   2.13190
   A12        2.14720  -0.00554  -0.00019  -0.02000  -0.02022   2.12698
   A13        2.15159   0.00037  -0.00014   0.00324   0.00310   2.15469
   A14        2.02350   0.00001   0.00016  -0.00151  -0.00135   2.02215
   A15        2.10809  -0.00037  -0.00002  -0.00173  -0.00175   2.10634
   A16        2.11070  -0.00075  -0.00002  -0.00285  -0.00288   2.10782
   A17        2.05244   0.00105   0.00007   0.00471   0.00479   2.05723
   A18        2.12004  -0.00030  -0.00005  -0.00186  -0.00190   2.11813
   A19        1.94494  -0.00102   0.00031  -0.00987  -0.00956   1.93538
   A20        1.93134  -0.00108   0.00033  -0.01052  -0.01019   1.92114
   A21        2.20750   0.00365  -0.00017   0.01650   0.01585   2.22335
   A22        1.95013  -0.00194   0.00026  -0.01046  -0.01067   1.93946
   A23        2.12554  -0.00171  -0.00009  -0.00572  -0.00628   2.11926
   A24        1.86010  -0.00153   0.00001  -0.01012  -0.01011   1.84999
    D1        0.00284  -0.00008  -0.00002  -0.00183  -0.00186   0.00098
    D2       -3.13620  -0.00006  -0.00002   0.00104   0.00096  -3.13523
    D3       -3.14145   0.00001  -0.00000   0.00353   0.00351  -3.13794
    D4        0.00269   0.00003  -0.00001   0.00640   0.00634   0.00903
    D5       -0.00165   0.00004   0.00001   0.00070   0.00072  -0.00093
    D6        3.13905   0.00006   0.00001   0.00166   0.00167   3.14072
    D7       -3.14033  -0.00006  -0.00001  -0.00507  -0.00509   3.13777
    D8        0.00038  -0.00003  -0.00000  -0.00411  -0.00415  -0.00377
    D9       -3.14034  -0.00010  -0.00001  -0.00430  -0.00431   3.13854
   D10       -0.00171   0.00001   0.00001   0.00157   0.00159  -0.00013
   D11       -0.00098   0.00006   0.00001   0.00318   0.00317   0.00218
   D12        3.13729   0.00020   0.00002   0.01218   0.01205  -3.13384
   D13        3.13795   0.00005   0.00002   0.00017   0.00020   3.13815
   D14       -0.00697   0.00018   0.00003   0.00917   0.00909   0.00212
   D15       -0.00194  -0.00001   0.00001  -0.00323  -0.00320  -0.00514
   D16        3.14048  -0.00012   0.00001  -0.01629  -0.01640   3.12408
   D17       -3.14018  -0.00013  -0.00001  -0.01223  -0.01228   3.13072
   D18        0.00223  -0.00024  -0.00001  -0.02529  -0.02548  -0.02325
   D19        3.10099  -0.00060   0.00018  -0.10305  -0.10301   2.99798
   D20       -0.04691  -0.00014   0.00020  -0.04619  -0.04589  -0.09279
   D21       -0.04393  -0.00048   0.00020  -0.09409  -0.09400  -0.13792
   D22        3.09136  -0.00003   0.00021  -0.03723  -0.03687   3.05449
   D23        0.00314  -0.00003  -0.00001   0.00225   0.00224   0.00538
   D24       -3.13913  -0.00004  -0.00001  -0.00016  -0.00013  -3.13926
   D25       -3.13929   0.00009  -0.00001   0.01559   0.01542  -3.12387
   D26        0.00162   0.00008  -0.00001   0.01318   0.01305   0.01467
   D27        3.14126   0.00005   0.00000   0.00683   0.00680  -3.13512
   D28        0.00055  -0.00007  -0.00000  -0.00720  -0.00718  -0.00663
   D29       -0.00132   0.00002   0.00001  -0.00106  -0.00107  -0.00239
   D30        3.14120  -0.00001   0.00000  -0.00205  -0.00205   3.13915
   D31        3.14098   0.00003   0.00000   0.00146   0.00141  -3.14079
   D32        0.00031   0.00000  -0.00000   0.00047   0.00043   0.00075
   D33        2.99074   0.00237  -0.00153   0.15852   0.15729  -3.13516
   D34       -0.15682   0.00282  -0.00152   0.21239   0.21056   0.05375
         Item               Value     Threshold  Converged?
 Maximum Force            0.010322     0.000450     NO 
 RMS     Force            0.002403     0.000300     NO 
 Maximum Displacement     0.254091     0.001800     NO 
 RMS     Displacement     0.049896     0.001200     NO 
 Predicted change in Energy=-1.200130D-03
 GradGradGradGradGradGradGradGradGradGradGradGradGradGradGradGradGradGrad

                          Input orientation:                          
 ---------------------------------------------------------------------
 Center     Atomic      Atomic             Coordinates (Angstroms)
 Number     Number       Type             X           Y           Z
 ---------------------------------------------------------------------
[...]
   xx         0.140167D+03      0.207706D+02      0.231105D+02
   yx        -0.257626D+02     -0.381763D+01     -0.424768D+01
   yy         0.724950D+02      0.107426D+02      0.119528D+02
   zx         0.191737D+02      0.284125D+01      0.316131D+01
   zy        -0.211664D+02     -0.313654D+01     -0.348987D+01
   zz         0.108352D+03      0.160562D+02      0.178649D+02

 ----------------------------------------------------------------------
 1\1\GINC-N12\Freq\RB3LYP\def2TZVP\C7H6N2O2\UNKNOWN\20-Jan-2025\0\\#N G
 eom=AllCheck Guess=TCheck SCRF=Check GenChk RB3LYP/def2TZVP Freq\\opt 
 meta\\0,1\C,1.2279457078,-0.7615377212,-0.0556332139\C,1.2428493842,0.
 7025881211,-0.0612329012\C,0.1157065214,1.4313559269,-0.0594627518\C,-
 1.2075803727,0.78242259,0.0200884635\C,-1.2156585588,-0.6858543725,-0.
 0225533323\C,-0.0888745131,-1.4063989926,-0.0519178287\N,2.3516537114,
 -1.3815783266,-0.059264255\H,2.2189240914,1.1689391778,-0.0860506725\N
 ,-2.2541301888,1.5038461815,0.1731191491\H,-2.1866130712,-1.1687070313
 ,-0.0046537043\H,-0.1173231421,-2.4903795162,-0.0656528911\H,-3.092767
 2891,0.9248803229,0.2357864314\H,2.212252637,-2.3937001001,-0.05950482
 21\C,0.1807305719,2.9210407465,-0.2054484081\O,-0.3519866981,3.5430149
 333,-1.0818143055\O,0.964101292,3.4875335036,0.7397127093\H,0.98842369
 69,4.4399305768,0.5513694031\\Version=ES64L-G16RevA.03\State=1-A\HF=-5
 30.4808136\RMSD=3.631e-09\RMSF=8.451e-06\ZeroPoint=0.1246498\Thermal=0
 .13398\Dipole=-0.2976873,-1.1916396,0.3926811\DipoleDeriv=0.5538137,-0
 .0789197,-0.0069127,-0.0955065,0.5205157,-0.0165057,-0.0035801,-0.0001
 996,0.1507007,0.0907512,-0.0612979,0.001762,0.0271187,-0.1760586,0.028
 1805,0.0099977,-0.0463836,-0.076104,-0.1091274,-0.0129848,-0.0282578,-
 0.0634751,-0.1839506,-0.0042864,-0.0367902,-0.0161025,-0.0611477,0.537
 4224,0.0376702,-0.0646275,-0.0601616,0.4346135,0.0190517,-0.0111785,0.
 0187053,0.1508184,0.1032487,0.0030164,0.0105597,0.0518582,-0.1343583,-
 0.0012165,-0.0130884,0.0007022,-0.0620808,-0.1619358,-0.0338364,0.0013
 336,-0.065578,0.0803065,0.0036372,0.0055655,0.0177324,-0.0697417,-0.74
 25277,0.3375739,0.0070973,0.2315244,-0.4305692,0.0047043,0.0037447,0.0
 037985,-0.4217051,0.0304836,-0.0490112,0.0049484,-0.0245211,0.0447523,
 0.0031585,0.007179,0.013833,0.1175162,-0.6512219,0.2067168,0.0312652,0
 .3256609,-0.4109033,-0.0337023,0.0475157,-0.0207349,-0.3875462,-0.0558
 256,-0.0544544,0.0046051,-0.0212402,0.0184628,-0.0023512,0.0097802,-0.
 0023127,0.1193412,0.0416465,0.0207427,0.0035175,-0.0067594,-0.0764843,
 -0.0029779,-0.0008865,-0.0037116,0.1236933,0.167947,-0.1274585,0.00264
 26,-0.2322234,0.094064,0.0182231,-0.0059607,-0.0002379,0.2205707,0.250
 7756,-0.1834819,-0.000986,-0.078974,0.0057078,0.0025112,-0.0011352,-0.
 0030138,0.2236283,0.6540638,0.2553062,0.6854086,0.0570334,1.6379751,-0
 .0252815,0.5789153,0.1719727,1.2270636,-0.4523249,-0.0033246,-0.264991
 7,0.1857958,-0.9565894,0.3133345,-0.2712094,0.1077572,-0.7823963,-0.56
 26814,-0.3040286,-0.3662856,-0.2582087,-0.7316856,-0.3669094,-0.303057
 9,-0.3460471,-0.7560478,0.305492,0.0477719,-0.0210786,0.0276565,0.2642
 016,0.0604299,-0.0158111,0.1042424,0.2834371\Polar=134.6547075,-29.970
 1837,127.1424318,0.7492244,-0.0020398,59.2174992\Quadrupole=-2.5924086
 ,6.9411962,-4.3487877,8.5038784,-1.3180615,2.9186582\PG=C01 [X(C7H6N2O
 2)]\NImag=0\\0.74981432,-0.11570939,0.64304455,-0.00302529,-0.00032828
 ,0.16896274,-0.09785202,-0.03810808,0.00275367,0.81646575,-0.03328589,
 -0.21957399,-0.00013976,-0.05599768,0.62877526,0.00104840,0.00193816,-
 0.07069226,-0.01085874,-0.00600385,0.13585481,-0.00396859,0.02511865,-
 0.00389293,-0.37901342,0.15461857,0.00205137,0.69658897,0.03348789,-0.
 02190189,0.00194656,0.16626651,-0.22671612,-0.00446926,-0.10792086,0.6
 3071630,-0.00012284,0.00027058,0.00338761,0.00000176,-0.00138043,-0.05
 642869,0.00649569,-0.01855751,0.16535341,0.01092698,-0.00004514,-0.000
 69716,-0.04109301,0.00765470,0.00211559,-0.15459258,-0.05373562,0.0029
 2805,0.74296642,-0.00389007,0.00784251,-0.00007201,0.01503861,0.018001
 48,-0.00039929,-0.06099941,-0.14238356,0.00830764,-0.11835839,0.625850
 54,-0.00160599,-0.00008756,-0.01338133,0.00164539,-0.00176687,0.005099
 25,0.00344078,0.00754167,-0.06875006,-0.06065873,0.02872658,0.17436692
 ,-0.04408213,0.01384178,0.00058968,-0.00087798,0.00258572,0.00022431,0
 .00091186,-0.03165636,0.00152983,-0.10141003,-0.03752316,-0.00204253,0
 .81847874,0.00874263,0.01848953,-0.00014149,0.00250026,-0.00451026,0.0
 0005594,-0.01398175,-0.01892182,-0.00059501,-0.02754380,-0.20840544,-0
 .00101337,-0.06168723,0.60931805,0.00094644,0.00019832,0.00337192,0.00
 012527,0.00032295,0.00015135,0.00020284,0.00078582,0.00575600,-0.00007
 694,-0.00122523,-0.07282752,-0.01937915,0.01141386,0.12320832,-0.16726
 066,-0.05811733,-0.00008400,0.00245466,-0.01426241,0.00014862,-0.00577
 027,0.00066454,-0.00038738,-0.00271350,0.02787579,0.00238287,-0.391184
 77,0.15962649,0.00872553,0.69501097,-0.06797237,-0.14980104,-0.0002137
 4,-0.03164671,-0.01943876,0.00017232,0.00044757,0.00086068,-0.00052540
 ,0.03296087,-0.02284137,-0.00083426,0.18101306,-0.23437162,-0.00533387
 ,-0.11647985,0.73770339,0.00033186,-0.00023284,-0.07414588,-0.00045159
 ,0.00046451,0.00679158,0.00053983,0.00007579,0.00057323,0.00076062,-0.
 00217788,0.00301760,0.00805102,-0.00433117,-0.04933385,-0.00958533,0.0
 1022825,0.12217063,-0.43155958,0.14876441,0.00113278,-0.00930422,0.034
 64053,-0.00017803,0.00913980,-0.00293351,-0.00011104,-0.00717930,0.001
 26132,0.00105503,0.00153604,-0.01281620,-0.00036409,-0.06456457,0.0240
 9057,0.00038817,0.54302871,0.21135604,-0.21829719,-0.00050295,0.051292
 80,-0.04174866,-0.00036040,-0.00625976,-0.00527809,-0.00002974,-0.0001
 2748,-0.00678638,-0.00019327,-0.00661969,0.00221819,0.00002844,0.00256
 405,0.01428446,-0.00020235,-0.16407892,0.63583720,0.00088281,-0.000607
 08,-0.05270322,0.00004256,-0.00001410,-0.00498574,-0.00007277,0.000303
 73,0.00264127,-0.00003001,-0.00019282,0.00061274,-0.00030112,0.0001808
 3,0.00135968,0.00070584,-0.00000462,0.03074223,-0.00119586,0.00075487,
 0.06175407,0.00131669,0.00133243,0.00008710,-0.28602831,-0.11209096,0.
 00611591,-0.01923936,-0.01134363,0.00066606,0.00009093,0.00349324,-0.0
 0024263,0.00016458,0.00024494,0.00001831,0.00062411,0.00062921,0.00000
 312,0.00090004,0.00059368,-0.00000232,0.30327889,-0.02988160,-0.011194
 50,0.00098740,-0.11225342,-0.11133563,0.00383596,0.01771550,0.01185168
 ,-0.00053545,0.00159597,-0.00285539,0.00019225,0.00051827,0.00010105,-
 0.00001940,0.00184781,-0.00547218,-0.00006009,-0.00004694,0.00317730,-
 0.00009105,0.11886723,0.11424752,0.00072885,-0.00015952,0.00430896,0.0
 0584535,0.00352647,-0.04108603,0.00190238,0.00095225,0.00749567,0.0004
 7718,0.00035852,0.01123199,0.00000952,0.00001864,-0.00056307,-0.000113
 38,0.00017455,0.00185425,-0.00015947,-0.00009728,-0.00152031,-0.006585
 40,-0.00403227,0.02638448,-0.00738247,-0.00018627,0.00044499,0.0009755
 2,-0.01163613,-0.00006849,-0.06481918,0.01870731,0.00580102,-0.4051480
 1,0.22509272,0.05111148,-0.01178664,0.02962983,0.00640152,0.01003831,-
 0.00251514,-0.00039703,0.00370473,-0.00002523,-0.00001306,-0.00137123,
 0.00129094,-0.00021122,0.74604567,0.00091486,-0.00620931,-0.00042776,-
 0.00588992,0.00179258,0.00039076,0.00506692,0.02060107,0.00076491,0.16
 219224,-0.24390667,-0.02854533,0.04980904,-0.04004788,-0.00810555,-0.0
 0852149,-0.00579843,0.00032087,-0.00056864,0.00330468,-0.00006322,-0.0
 0035331,0.00059957,-0.00011507,-0.05771629,0.43340440,0.00107201,0.000
 02671,0.00042613,-0.00032699,0.00127752,0.00214544,0.00551817,-0.00063
 367,-0.00585603,0.04654146,-0.03509195,-0.05832914,0.00740084,-0.00606
 657,0.02963351,-0.00172842,-0.00065360,0.00134545,-0.00055525,0.000075
 35,0.00027172,0.00008395,-0.00012696,0.00077296,-0.07952126,0.02501632
 ,0.07019266,0.00008811,0.00455071,0.00042994,0.00011398,0.00026553,-0.
 00006620,0.00103451,0.00010256,0.00008379,-0.00098623,0.00308264,0.000
 48777,-0.27557586,-0.11115868,0.00447597,-0.02105814,-0.01393106,0.000
 44296,-0.00203130,-0.00075929,-0.00009858,-0.00008507,-0.00006806,-0.0
 0001177,0.00298457,0.00046041,-0.00024956,0.29400343,0.00186064,-0.002
 75467,-0.00026781,0.00066094,0.00012312,0.00009114,0.00154553,-0.00571
 072,0.00006050,-0.02896577,-0.01153260,0.00071323,-0.11182741,-0.11327
 193,0.00083787,0.01807084,0.01233901,-0.00024490,0.00131312,0.00075652
 ,-0.00000442,-0.00004342,0.00013659,0.00002810,-0.00073914,0.00271451,
 0.00052779,0.11789660,0.11650438,0.00012405,-0.00035744,0.01272789,0.0
 0011444,0.00007706,-0.00088150,0.00018586,-0.00025630,0.00204593,-0.00
 048212,0.00019281,0.00255203,0.00514638,0.00087738,-0.03756916,0.00031
 787,0.00048052,0.00620976,0.00006269,0.00017057,-0.00340493,0.00000277
 ,0.00000184,-0.00034128,-0.00028250,-0.00003302,-0.00153716,-0.0051530
 5,-0.00128867,0.02441299,0.00134878,-0.02827524,-0.00021708,-0.0053831
 8,-0.00119836,-0.00000440,-0.00013382,0.00049991,-0.00000345,-0.004594
 91,-0.00051009,0.00012048,0.00482591,0.03012278,0.00038501,-0.05753493
 ,-0.01028646,-0.00009843,0.00301487,-0.00066197,-0.00002847,0.00022551
 ,-0.00143434,0.00004524,-0.00004937,0.00225865,0.00020801,0.00095815,-
 0.00019011,-0.00011076,0.05746088,0.00400469,-0.01274009,-0.00013333,-
 0.00274782,0.00079639,-0.00005241,0.00012627,0.00032963,0.00000934,0.0
 0210156,0.00220404,-0.00005847,-0.00192325,-0.01356235,-0.00021522,-0.
 00936288,-0.33217051,-0.00380790,0.00015205,0.00268244,0.00003353,0.00
 004626,-0.00064725,0.00001124,0.00033365,-0.00135540,-0.00017531,0.000
 27407,0.00098497,0.00009346,0.00823334,0.35280078,0.00003392,0.0001815
 8,0.00265947,-0.00008537,-0.00013072,0.00214551,-0.00000751,0.00015076
 ,-0.00083537,0.00045356,-0.00026991,0.01268182,0.00075619,-0.00090721,
 0.00593521,-0.00022492,-0.00367658,-0.03723119,-0.00000327,0.00001533,
 -0.00163683,0.00000714,-0.00000956,0.00043713,-0.00057558,0.00051206,-
 0.00332729,-0.00019154,0.00010260,-0.00636316,-0.00025978,0.00422129,0
 .02427521,-0.00029389,-0.00088846,0.00014587,-0.00134544,-0.00141416,0
 .00009192,-0.00230154,0.00512540,0.00241599,-0.03964084,-0.02603157,0.
 00298220,0.00356435,-0.00241990,-0.00183630,0.00047954,0.00012369,0.00
 004432,0.00054149,0.00024150,-0.00005818,-0.00032228,0.00035846,-0.000
 30919,-0.27300068,-0.14498822,0.01952736,0.00026652,0.00192271,0.00008
 129,0.00015333,-0.00008830,0.00018162,0.31171762,0.00066814,0.00017867
 ,-0.00004240,-0.00013911,0.00020397,0.00011917,0.00135428,-0.00028750,
 -0.00080569,0.03196058,0.00301301,-0.00374245,0.00468016,0.00185825,0.
 00056202,-0.00055915,0.00015837,-0.00002680,-0.00033131,-0.00011147,0.
 00002390,-0.00000320,-0.00000565,0.00006657,-0.20455101,-0.16314925,0.
 01505674,-0.00079728,-0.00014697,-0.00007225,-0.00019227,0.00018078,-0
 .00008297,0.16732259,0.15808415,-0.00015675,-0.00003973,0.00074342,0.0
 0048742,0.00029552,-0.00008557,0.00157264,-0.00167178,0.01560502,0.006
 83189,0.00334065,0.00107673,-0.00152769,0.00103943,-0.01150263,0.00008
 074,0.00019398,0.00036504,0.00005147,0.00002017,-0.00032583,0.00012904
 ,-0.00010775,-0.00194488,0.01594041,0.00842632,-0.03392967,-0.00012721
 ,-0.00034308,0.00053554,-0.00004145,0.00004820,0.00112790,-0.02304777,
 -0.01136839,0.02854467,-0.00717528,0.04799156,0.00002990,-0.00362778,0
 .00071725,0.00009536,0.00077419,0.00088592,-0.00002662,0.00021166,0.00
 073456,0.00005317,0.00035630,-0.00051790,-0.00001663,0.00163982,0.0032
 1820,0.00004930,-0.04730627,-0.08910602,-0.00000199,0.00005654,0.00054
 791,-0.00000800,0.00009898,-0.00052082,-0.00004062,0.00027537,-0.00013
 322,-0.00003016,-0.00045265,-0.00119110,-0.00002896,-0.00008191,0.0001
 0026,0.00001025,0.05546486,-0.01044445,-0.02909019,0.00000742,0.005723
 95,0.00007390,-0.00009927,-0.00044419,-0.00159777,-0.00001178,-0.00068
 722,-0.00028206,0.00010649,0.00005197,0.00012454,-0.00003666,-0.003429
 04,0.00434599,0.00004296,-0.02997202,-0.38993856,-0.00009313,-0.000090
 47,0.00067390,-0.00000973,0.00005198,0.00032679,-0.00002721,-0.0000278
 2,0.00004682,-0.00000248,0.00159978,0.00053992,-0.00001755,0.00012184,
 0.00002763,0.00000003,0.03715488,0.41485130,0.00018904,-0.00016159,0.0
 0233548,-0.00019980,0.00028709,0.01629039,0.00046792,-0.00056540,-0.00
 028541,0.00012645,0.00012373,0.00047352,0.00012898,-0.00006819,0.00032
 374,-0.00016758,-0.00000584,-0.01158987,-0.00008443,-0.00005131,-0.033
 55538,-0.00003081,-0.00003160,-0.00029021,-0.00002725,0.00010953,-0.00
 027995,0.00003388,0.00002182,0.00112135,-0.00000806,-0.00000202,0.0005
 3437,0.00002267,-0.00001248,0.00015408,-0.00005916,0.00011503,0.026723
 13,-0.00567765,-0.00074004,0.00048943,0.00732850,0.03452786,-0.0018193
 6,-0.09929411,-0.02302472,0.00555201,0.00950869,-0.03286086,0.00219523
 ,-0.00600866,-0.00118659,0.00021687,-0.00030111,0.00016177,0.00006117,
 -0.00064295,0.00242575,-0.00018224,-0.00094466,0.00141343,0.00000600,0
 .00031168,0.00201534,-0.00061475,-0.00001534,-0.00162816,-0.00004017,0
 .00000926,0.00005865,0.00004722,0.00015700,0.00170835,-0.00007270,-0.0
 0026298,0.00033780,0.00000708,0.42573820,-0.00273400,-0.00327843,0.001
 23451,0.01464675,-0.01787761,0.00659077,-0.00944698,-0.18734297,0.0048
 7118,-0.01947605,-0.01218163,-0.00030263,0.00178786,0.00207955,0.00067
 700,0.00049143,0.00060477,-0.00018752,-0.00047556,0.00373889,-0.000214
 80,-0.00185031,0.00169960,-0.00168627,0.00598610,-0.00374538,-0.000065
 85,0.00043221,0.00086085,0.00005424,0.00011593,0.00025687,-0.00013341,
 0.00059768,0.00019695,-0.00013041,0.00032741,0.00019981,0.00002597,-0.
 06434652,0.70526654,0.00057953,-0.00078887,0.01315473,-0.00168517,0.00
 051773,0.00393323,0.00898485,-0.00034688,-0.07205572,0.00279012,0.0009
 3433,0.00347402,-0.00008291,-0.00095662,0.00252466,-0.00005212,-0.0001
 3407,-0.00087465,-0.00047173,0.00002904,0.00049615,-0.00080901,0.00058
 142,-0.00609553,-0.00053750,0.00181445,-0.00440467,-0.00014740,-0.0001
 5806,0.00067048,-0.00013189,-0.00002966,-0.00039943,-0.00011166,0.0006
 7160,0.00000988,0.00003462,-0.00024616,-0.00204465,0.27975959,-0.19426
 422,0.62800809,0.00019082,-0.00043257,0.00079521,0.00122086,-0.0033670
 5,0.00135160,0.01500034,0.01606750,-0.01122038,-0.00665128,0.00349964,
 -0.00086159,0.00115328,0.00057177,-0.00003193,0.00020350,0.00000535,-0
 .00007958,0.00048355,0.00006687,0.00009064,0.00009516,-0.00006531,-0.0
 0083199,-0.00054252,-0.00408142,0.00227547,0.00007184,0.00033711,0.000
 06093,0.00008464,0.00000747,-0.00003893,0.00012653,-0.00107010,-0.0000
 5784,0.00002372,0.00005655,-0.00015373,-0.20598191,0.14235677,-0.21526
 887,0.21359523,0.00230702,0.00306813,-0.00348544,-0.00596763,-0.005977
 98,-0.00109888,0.02275850,-0.02616751,0.03649569,0.00449139,0.00061759
 ,0.00071220,-0.00082806,-0.00030126,-0.00039722,-0.00015176,-0.0003204
 2,0.00021696,0.00039491,-0.00246702,-0.00022313,0.00037045,-0.00017234
 ,0.00208506,-0.00280060,-0.00000255,0.00028220,-0.00017291,-0.00031989
 ,-0.00007245,-0.00010155,-0.00018530,0.00011689,0.00013455,-0.00009011
 ,0.00040138,-0.00009965,-0.00025175,0.00055038,0.14253865,-0.30023074,
 0.25014703,-0.16661577,0.29025004,-0.00120012,-0.00035405,-0.00047688,
 0.00357334,0.00272336,0.00183668,-0.01521073,0.02169395,-0.00221298,-0
 .00301764,-0.00103495,-0.00066337,0.00034340,0.00048636,-0.00014341,-0
 .00000738,0.00009910,0.00004861,0.00004040,0.00076277,0.00011661,0.000
 10230,-0.00030510,-0.00058136,0.00192308,-0.00018557,0.00126078,0.0001
 0434,0.00016054,-0.00009580,0.00007722,0.00008976,-0.00003317,-0.00002
 042,-0.00001183,-0.00025039,-0.00001169,0.00022923,0.00005241,-0.21076
 996,0.25144464,-0.42231914,0.28585637,-0.28837540,0.48850401,0.0012627
 7,0.00089233,0.00029916,-0.00377924,-0.00149307,-0.00030320,0.00412096
 ,-0.00947268,-0.00848598,-0.00002746,0.00029539,-0.00020035,-0.0000947
 2,-0.00008671,0.00011520,-0.00005058,0.00016043,-0.00001547,0.00042722
 ,-0.00087318,0.00020449,0.00098514,-0.00033180,-0.00028624,0.00008713,
 -0.00036686,0.00039506,-0.00002984,-0.00008955,-0.00001384,0.00007779,
 -0.00003323,-0.00003325,-0.00002892,-0.00022787,-0.00005164,-0.0000128
 8,0.00002103,-0.00012783,-0.12455310,-0.03278534,-0.07556187,-0.016973
 34,-0.00192302,-0.06564088,0.16638787,0.00042900,0.00247124,0.00146311
 ,-0.00292288,-0.00334246,-0.00104062,-0.02636858,-0.02815013,-0.026196
 38,0.00539252,-0.00532832,-0.00082368,-0.00191781,-0.00078302,0.000417
 36,-0.00026188,-0.00019733,-0.00004723,0.00070484,-0.00150633,0.000213
 35,-0.00003592,-0.00080018,-0.00115094,-0.00097979,0.00122663,0.000622
 90,-0.00015936,-0.00065789,0.00009084,0.00000104,-0.00013563,-0.000064
 52,-0.00009936,-0.00021822,-0.00013832,-0.00013853,-0.00005712,-0.0003
 1426,-0.05318182,-0.15792339,-0.05474439,0.00685139,0.03946886,0.00625
 793,0.06463245,0.60984271,0.00024442,0.00086443,-0.00064800,-0.0012715
 5,-0.00070959,-0.00047553,-0.00644292,-0.00581823,0.00432004,0.0016932
 6,-0.00020705,-0.00050900,-0.00047885,0.00003966,-0.00039702,-0.000036
 38,-0.00003384,0.00006796,0.00043487,-0.00060733,0.00018229,0.00036319
 ,-0.00028199,-0.00002345,-0.00024771,0.00001730,0.00179356,-0.00002059
 ,-0.00013534,-0.00010283,0.00004742,-0.00004588,0.00002683,-0.00008357
 ,-0.00038638,-0.00014336,-0.00006260,0.00002620,0.00001606,-0.07260550
 ,-0.02720894,-0.15402344,-0.06511119,-0.00332358,-0.06258951,0.1594277
 1,-0.03733106,0.26978195,0.00030380,0.00001064,0.00071875,-0.00025467,
 -0.00026444,0.00005536,0.00156224,-0.00172016,-0.00511648,0.00033247,-
 0.00020035,0.00013743,0.00002974,-0.00003994,0.00009207,-0.00001238,0.
 00002088,-0.00004494,-0.00018825,-0.00002914,0.00005826,0.00025330,-0.
 00007405,-0.00049787,-0.00014649,0.00028950,0.00001452,-0.00001469,0.0
 0000931,0.00001633,-0.00001025,0.00000856,-0.00003053,0.00000915,0.000
 07696,-0.00002081,0.00001833,-0.00002457,-0.00011736,0.00062915,-0.035
 62738,0.00271142,-0.00210042,0.00566547,0.00385837,-0.02779881,0.00805
 470,-0.01585001,0.02738779,0.00014686,-0.00025333,0.00011597,-0.000456
 59,0.00075477,0.00032977,-0.00333025,0.00009869,-0.00214245,0.00058965
 ,-0.00102576,-0.00062452,-0.00030489,-0.00001357,0.00008950,0.00000484
 ,0.00011499,-0.00003066,-0.00009865,0.00013401,-0.00000184,0.00023379,
 -0.00000409,0.00002969,0.00005706,0.00024463,-0.00004441,0.00000973,-0
 .00007212,0.00004388,0.00001897,0.00002069,-0.00000809,-0.00001845,0.0
 0010741,0.00003379,0.00002929,0.00000685,-0.00002085,-0.00821888,-0.03
 232370,-0.00302667,0.00581182,0.00308225,0.00631925,-0.01831831,-0.453
 90942,0.07514163,0.02384401,0.48303768,-0.00007033,-0.00036284,-0.0000
 3079,0.00028999,0.00065309,0.00038706,-0.00573545,-0.00113152,-0.00075
 392,0.00024443,-0.00131318,-0.00012621,-0.00036789,-0.00003248,0.00007
 229,0.00002542,0.00006713,-0.00001090,-0.00004224,0.00018808,-0.000044
 53,0.00009130,0.00000235,-0.00003934,0.00025910,0.00010302,-0.00017829
 ,0.00000727,-0.00010131,0.00001983,0.00002039,0.00001339,0.00000298,-0
 .00002614,0.00005165,0.00002006,0.00001384,0.00001661,0.00002094,-0.00
 222990,-0.04070425,0.00994597,0.00322580,0.00596831,-0.00245308,-0.009
 72108,0.11278592,-0.05727655,0.01401548,-0.07620396,0.05044451\\0.0000
 0952,0.00000115,-0.00000413,0.00001614,-0.00002372,0.00000218,-0.00002
 014,-0.00000816,-0.00001227,-0.00001499,0.00000629,0.00000119,0.000000
 79,0.00000278,0.00000403,-0.00000466,0.00000594,0.00000059,-0.00000623
 ,0.00000105,0.00000051,-0.00000522,0.00000571,-0.00000268,0.00001432,0
 .00000181,-0.00000131,0.00000153,-0.00000295,0.00000051,0.00000356,-0.
 00000065,-0.00000054,0.00000339,-0.00000431,0.00000253,-0.00000205,-0.
 00000082,-0.00000276,0.00001828,-0.00000488,0.00002300,-0.00000636,0.0
 0000504,-0.00000107,-0.00001154,0.00000826,-0.00001088,0.00000366,0.00
 000745,0.00000108\\\@


 ... IT IS NO ONE DREAME THAT
     CAN PLEASE THESE ALL ...

                -- BEN JONSON
 Job cpu time:       0 days  0 hours 32 minutes 57.3 seconds.
 Elapsed time:       0 days  0 hours 32 minutes 60.0 seconds.
 File lengths (MBytes):  RWF=    212 Int=      0 D2E=      0 Chk=     13 Scr=      1
 Normal termination of Gaussian 16 at Mon Jan 20 17:08:03 2025.
