 Entering Gaussian System, Link 0=g16
 Initial command:
 /sw/cluster/pub/apps//g16/l1.exe "/data/mmaximo/27760/Gau-1917132.inp" -scrdir="/data/mmaximo/27760/"
 Entering Link 1 = /sw/cluster/pub/apps//g16/l1.exe PID=   1917134.
  
 Copyright (c) 1988,1990,1992,1993,1995,1998,2003,2009,2016,
            Gaussian, Inc.  All Rights Reserved.
  
 This is part of the Gaussian(R) 16 program.  It is based on
 the Gaussian(R) 09 system (copyright 2009, Gaussian, Inc.),
 the Gaussian(R) 03 system (copyright 2003, Gaussian, Inc.),
 the Gaussian(R) 98 system (copyright 1998, Gaussian, Inc.),
 the Gaussian(R) 94 system (copyright 1995, Gaussian, Inc.),
 the Gaussian 92(TM) system (copyright 1992, Gaussian, Inc.),
 the Gaussian 90(TM) system (copyright 1990, Gaussian, Inc.),
 the Gaussian 88(TM) system (copyright 1988, Gaussian, Inc.),
 the Gaussian 86(TM) system (copyright 1986, Carnegie Mellon
 University), and the Gaussian 82(TM) system (copyright 1983,
 Carnegie Mellon University). Gaussian is a federally registered
 trademark of Gaussian, Inc.
  
 This software contains proprietary and confidential information,
 including trade secrets, belonging to Gaussian, Inc.
  
 This software is provided under written license and may be
 used, copied, transmitted, or stored only in accord with that
 written license.
  
 The following legend is applicable only to US Government
 contracts under FAR:
  
                    RESTRICTED RIGHTS LEGEND
  
 Use, reproduction and disclosure by the US Government is
 subject to restrictions as set forth in subparagraphs (a)
 and (c) of the Commercial Computer Software - Restricted
 Rights clause in FAR 52.227-19.
  
 Gaussian, Inc.
 340 Quinnipiac St., Bldg. 40, Wallingford CT 06492
  
  
 ---------------------------------------------------------------
 Warning -- This program may not be used in any manner that
 competes with the business of Gaussian, Inc. or will provide
 assistance to any competitor of Gaussian, Inc.  The licensee
 of this program is prohibited from giving any competitor of
 Gaussian, Inc. access to this program.  By using this program,
 the user acknowledges that Gaussian, Inc. is engaged in the
 business of creating and licensing software in the field of
 computational chemistry and represents and warrants to the
 licensee that it is not a competitor of Gaussian, Inc. and that
 it will not use this program in any manner prohibited above.
 ---------------------------------------------------------------
  

 Cite this work as:
 Gaussian 16, Revision A.03,
 M. J. Frisch, G. W. Trucks, H. B. Schlegel, G. E. Scuseria, 
 M. A. Robb, J. R. Cheeseman, G. Scalmani, V. Barone, 
 G. A. Petersson, H. Nakatsuji, X. Li, M. Caricato, A. V. Marenich, 
 J. Bloino, B. G. Janesko, R. Gomperts, B. Mennucci, H. P. Hratchian, 
 J. V. Ortiz, A. F. Izmaylov, J. L. Sonnenberg, D. Williams-Young, 
 F. Ding, F. Lipparini, F. Egidi, J. Goings, B. Peng, A. Petrone, 
 T. Henderson, D. Ranasinghe, V. G. Zakrzewski, J. Gao, N. Rega, 
 G. Zheng, W. Liang, M. Hada, M. Ehara, K. Toyota, R. Fukuda, 
 J. Hasegawa, M. Ishida, T. Nakajima, Y. Honda, O. Kitao, H. Nakai, 
 T. Vreven, K. Throssell, J. A. Montgomery, Jr., J. E. Peralta, 
 F. Ogliaro, M. J. Bearpark, J. J. Heyd, E. N. Brothers, K. N. Kudin, 
 V. N. Staroverov, T. A. Keith, R. Kobayashi, J. Normand, 
 K. Raghavachari, A. P. Rendell, J. C. Burant, S. S. Iyengar, 
 J. Tomasi, M. Cossi, J. M. Millam, M. Klene, C. Adamo, R. Cammi, 
 J. W. Ochterski, R. L. Martin, K. Morokuma, O. Farkas, 
 J. B. Foresman, and D. J. Fox, Gaussian, Inc., Wallingford CT, 2016.
 
 ******************************************
 Gaussian 16:  ES64L-G16RevA.03 25-Dec-2016
                14-Jan-2025 
 ******************************************
 %chk=C6H4-OH-2.chk
 ----------------------------------------
 #P B3LYP/def2tzvp nosymm Density=Current
 ----------------------------------------
 1/30=1,38=1,172=1/1;
 2/12=2,15=1,17=6,18=5,40=1/2;
 3/5=44,7=101,11=2,25=1,30=1,74=-5/1,2,3;
 4//1;
 5/5=2,38=5/2;
 6/7=2,8=2,9=2,10=2,22=-1,28=1/1;
 99/5=1,9=1/99;
 Leave Link    1 at Tue Jan 14 14:11:47 2025, MaxMem=           0 cpu:               0.0 elap:               0.0
 (Enter /sw/cluster/pub/apps//g16/l101.exe)
 ------------
 Single-Point
 ------------
 Symbolic Z-matrix:
 Charge =  0 Multiplicity = 1
 C                     1.2072   -0.70066   0. 
 C                     1.2072    0.68947   0. 
 C                     0.0051    1.38533   0. 
 C                    -1.2072    0.70066   0. 
 C                    -1.2072   -0.68947   0. 
 C                    -0.0051   -1.38533   0. 
 O                     2.42158  -1.33813   0. 
 H                     2.15155   1.21736   0. 
 H                     0.01539   2.47005   0. 
 O                    -2.42158   1.33813   0. 
 H                    -2.15155  -1.21736   0. 
 H                    -0.01539  -2.47005   0. 
 H                    -2.28522   2.29168   0. 
 H                     2.28522  -2.29168   0. 
 
 ITRead=  0  0  0  0  0  0  0  0  0  0  0  0  0  0
 MicOpt= -1 -1 -1 -1 -1 -1 -1 -1 -1 -1 -1 -1 -1 -1
 NAtoms=     14 NQM=       14 NQMF=       0 NMMI=      0 NMMIF=      0
                NMic=       0 NMicF=      0.
                    Isotopes and Nuclear Properties:
 (Nuclear quadrupole moments (NQMom) in fm**2, nuclear magnetic moments (NMagM)
  in nuclear magnetons)

  Atom         1           2           3           4           5           6           7           8           9          10
 IAtWgt=          12          12          12          12          12          12          16           1           1          16
 AtmWgt=  12.0000000  12.0000000  12.0000000  12.0000000  12.0000000  12.0000000  15.9949146   1.0078250   1.0078250  15.9949146
 NucSpn=           0           0           0           0           0           0           0           1           1           0
 AtZEff=  -0.0000000  -0.0000000  -0.0000000  -0.0000000  -0.0000000  -0.0000000  -0.0000000  -0.0000000  -0.0000000  -0.0000000
 NQMom=    0.0000000   0.0000000   0.0000000   0.0000000   0.0000000   0.0000000   0.0000000   0.0000000   0.0000000   0.0000000
 NMagM=    0.0000000   0.0000000   0.0000000   0.0000000   0.0000000   0.0000000   0.0000000   2.7928460   2.7928460   0.0000000
 AtZNuc=   6.0000000   6.0000000   6.0000000   6.0000000   6.0000000   6.0000000   8.0000000   1.0000000   1.0000000   8.0000000

  Atom        11          12          13          14
 IAtWgt=           1           1           1           1
 AtmWgt=   1.0078250   1.0078250   1.0078250   1.0078250
 NucSpn=           1           1           1           1
 AtZEff=  -0.0000000  -0.0000000  -0.0000000  -0.0000000
 NQMom=    0.0000000   0.0000000   0.0000000   0.0000000
 NMagM=    2.7928460   2.7928460   2.7928460   2.7928460
 AtZNuc=   1.0000000   1.0000000   1.0000000   1.0000000
 Leave Link  101 at Tue Jan 14 14:11:47 2025, MaxMem=   104857600 cpu:               0.0 elap:               0.0
 (Enter /sw/cluster/pub/apps//g16/l202.exe)
                          Input orientation:                          
 ---------------------------------------------------------------------
 Center     Atomic      Atomic             Coordinates (Angstroms)
 Number     Number       Type             X           Y           Z
 ---------------------------------------------------------------------
      1          6           0        1.207202   -0.700658    0.000000
      2          6           0        1.207202    0.689471    0.000000
      3          6           0        0.005096    1.385329    0.000000
      4          6           0       -1.207202    0.700658    0.000000
      5          6           0       -1.207202   -0.689471    0.000000
      6          6           0       -0.005096   -1.385329    0.000000
      7          8           0        2.421583   -1.338130    0.000000
      8          1           0        2.151547    1.217361    0.000000
      9          1           0        0.015386    2.470050    0.000000
     10          8           0       -2.421583    1.338130    0.000000
     11          1           0       -2.151547   -1.217361    0.000000
     12          1           0       -0.015386   -2.470050    0.000000
     13          1           0       -2.285220    2.291683    0.000000
     14          1           0        2.285220   -2.291683    0.000000
 ---------------------------------------------------------------------
                    Distance matrix (angstroms):
                    1          2          3          4          5
     1  C    0.000000
     2  C    1.390129   0.000000
     3  C    2.407572   1.388984   0.000000
     4  C    2.791601   2.414430   1.392279   0.000000
     5  C    2.414430   2.780437   2.403011   1.390129   0.000000
     6  C    1.392279   2.403011   2.770677   2.407572   1.388984
     7  O    1.371529   2.363448   3.640967   4.162300   3.686305
     8  H    2.137893   1.081876   2.153014   3.398261   3.862280
     9  H    3.387302   2.142636   1.084770   2.150691   3.387816
    10  O    4.162300   3.686305   2.427138   1.371529   2.363448
    11  H    3.398261   3.862280   3.380104   2.137893   1.081876
    12  H    2.150691   3.387816   3.855434   3.387302   2.142636
    13  H    4.599035   3.842408   2.463133   1.921844   3.170079
    14  H    1.921844   3.170079   4.326590   4.599035   3.842408
                    6          7          8          9         10
     6  C    0.000000
     7  O    2.427138   0.000000
     8  H    3.380104   2.569719   0.000000
     9  H    3.855434   4.504667   2.476372   0.000000
    10  O    3.640967   5.533411   4.574725   2.687017   0.000000
    11  H    2.153014   4.574725   4.944137   4.276985   2.569719
    12  H    1.084770   2.687017   4.276985   4.940197   4.504667
    13  H    4.326590   5.943866   4.564984   2.307510   0.963254
    14  H    2.463133   0.963254   3.511589   5.275060   5.943866
                   11         12         13         14
    11  H    0.000000
    12  H    2.476372   0.000000
    13  H    3.511589   5.275060   0.000000
    14  H    4.564984   2.307510   6.472725   0.000000
 Symmetry turned off by external request.
 Stoichiometry    C6H6O2
 Framework group  C2H[SGH(C6H6O2)]
 Deg. of freedom    13
 Full point group                 C2H     NOp   4
 Rotational constants (GHZ):           5.6630318           1.4839618           1.1758402
 Leave Link  202 at Tue Jan 14 14:11:47 2025, MaxMem=   104857600 cpu:               0.0 elap:               0.0
 (Enter /sw/cluster/pub/apps//g16/l301.exe)
 Standard basis: def2TZVP (5D, 7F)
 Ernie: Thresh=  0.10000D-02 Tol=  0.10000D-05 Strict=F.
   284 basis functions,   456 primitive gaussians,   324 cartesian basis functions
    29 alpha electrons       29 beta electrons
       nuclear repulsion energy       345.0282166440 Hartrees.
 IExCor=  402 DFT=T Ex+Corr=B3LYP ExCW=0 ScaHFX=  0.200000
 ScaDFX=  0.800000  0.720000  1.000000  0.810000 ScalE2=  1.000000  1.000000
 IRadAn=      5 IRanWt=     -1 IRanGd=            0 ICorTp=0 IEmpDi=  4
 NAtoms=   14 NActive=   14 NUniq=   14 SFac= 1.00D+00 NAtFMM=   60 NAOKFM=F Big=F
 Integral buffers will be    131072 words long.
 Raffenetti 2 integral format.
 Two-electron integral symmetry is turned off.
 Leave Link  301 at Tue Jan 14 14:11:47 2025, MaxMem=   104857600 cpu:               0.0 elap:               0.0
 (Enter /sw/cluster/pub/apps//g16/l302.exe)
 NPDir=0 NMtPBC=     1 NCelOv=     1 NCel=       1 NClECP=     1 NCelD=      1
         NCelK=      1 NCelE2=     1 NClLst=     1 CellRange=     0.0.
 One-electron integrals computed using PRISM.
   1 Symmetry operations used in ECPInt.
 ECPInt:  NShTT=    6328 NPrTT=   19500 LenC2=    6172 LenP2D=   15330.
 LDataN:  DoStor=T MaxTD1= 6 Len=  172
 NBasis=   284 RedAO= T EigKep=  1.08D-05  NBF=   284
 NBsUse=   284 1.00D-06 EigRej= -1.00D+00 NBFU=   284
 Precomputing XC quadrature grid using
 IXCGrd= 4 IRadAn=           5 IRanWt=          -1 IRanGd=           0 AccXCQ= 0.00D+00.
 Generated NRdTot=       0 NPtTot=           0 NUsed=           0 NTot=          32
 NSgBfM=   322   321   321   322   322 MxSgAt=    14 MxSgA2=    14.
 Leave Link  302 at Tue Jan 14 14:11:47 2025, MaxMem=   104857600 cpu:               0.2 elap:               0.2
 (Enter /sw/cluster/pub/apps//g16/l303.exe)
 DipDrv:  MaxL=1.
 Leave Link  303 at Tue Jan 14 14:11:47 2025, MaxMem=   104857600 cpu:               0.0 elap:               0.0
 (Enter /sw/cluster/pub/apps//g16/l401.exe)
 ExpMin= 9.52D-02 ExpMax= 2.70D+04 ExpMxC= 9.22D+02 IAcc=3 IRadAn=         5 AccDes= 0.00D+00
 Harris functional with IExCor=  402 and IRadAn=       5 diagonalized for initial guess.
 HarFok:  IExCor=  402 AccDes= 0.00D+00 IRadAn=         5 IDoV= 1 UseB2=F ITyADJ=14
 ICtDFT=  3500011 ScaDFX=  1.000000  1.000000  1.000000  1.000000
 FoFCou: FMM=F IPFlag=           0 FMFlag=      100000 FMFlg1=           0
         NFxFlg=           0 DoJE=T BraDBF=F KetDBF=T FulRan=T
         wScrn=  0.000000 ICntrl=       500 IOpCl=  0 I1Cent=   200000004 NGrid=           0
         NMat0=    1 NMatS0=      1 NMatT0=    0 NMatD0=    1 NMtDS0=    0 NMtDT0=    0
 Symmetry not used in FoFCou.
 Harris En= -382.892209311539    
 JPrj=0 DoOrth=F DoCkMO=F.
 Leave Link  401 at Tue Jan 14 14:11:49 2025, MaxMem=   104857600 cpu:               2.2 elap:               2.2
 (Enter /sw/cluster/pub/apps//g16/l502.exe)
 Two-electron integral symmetry not used.
 Closed shell SCF:
 Using DIIS extrapolation, IDIIS=  1040.
 NGot=   104857600 LenX=   104643506 LenY=   104538089
 Requested convergence on RMS density matrix=1.00D-08 within 128 cycles.
 Requested convergence on MAX density matrix=1.00D-06.
 Requested convergence on             energy=1.00D-06.
 No special actions if energy rises.
 Fock matrices will be formed incrementally for  20 cycles.
 Integral accuracy reduced to 1.0D-05 until final iterations.

 Cycle   1  Pass 0  IDiag  1:
 FoFJK:  IHMeth= 1 ICntrl=       0 DoSepK=F KAlg= 0 I1Cent=           0 FoldK=F
 IRaf= 950000000 NMat=       1 IRICut=       1 DoRegI=T DoRafI=F ISym2E= 0 IDoP0=0 IntGTp=1.
 FoFCou: FMM=F IPFlag=           0 FMFlag=      100000 FMFlg1=           0
         NFxFlg=           0 DoJE=F BraDBF=F KetDBF=F FulRan=T
         wScrn=  0.000000 ICntrl=         0 IOpCl=  0 I1Cent=           0 NGrid=           0
         NMat0=    1 NMatS0=      1 NMatT0=    0 NMatD0=    1 NMtDS0=    0 NMtDT0=    0
 Symmetry not used in FoFCou.
 E= -382.622589273495    
 DIIS: error= 3.25D-02 at cycle   1 NSaved=   1.
 NSaved= 1 IEnMin= 1 EnMin= -382.622589273495     IErMin= 1 ErrMin= 3.25D-02
 ErrMax= 3.25D-02  0.00D+00 EMaxC= 1.00D-01 BMatC= 2.63D-01 BMatP= 2.63D-01
 IDIUse=3 WtCom= 6.75D-01 WtEn= 3.25D-01
 Coeff-Com:  0.100D+01
 Coeff-En:   0.100D+01
 Coeff:      0.100D+01
 Gap=     0.208 Goal=   None    Shift=    0.000
 GapD=    0.208 DampG=1.000 DampE=0.500 DampFc=0.5000 IDamp=-1.
 Damping current iteration by 5.00D-01
 RMSDP=8.57D-03 MaxDP=5.04D-01              OVMax= 1.80D-01

 Cycle   2  Pass 0  IDiag  1:
 RMSU=  4.28D-03    CP:  1.02D+00
 E= -382.719115997309     Delta-E=       -0.096526723814 Rises=F Damp=T
 DIIS: error= 6.02D-03 at cycle   2 NSaved=   2.
 NSaved= 2 IEnMin= 2 EnMin= -382.719115997309     IErMin= 2 ErrMin= 6.02D-03
 ErrMax= 6.02D-03  0.00D+00 EMaxC= 1.00D-01 BMatC= 1.23D-02 BMatP= 2.63D-01
 IDIUse=3 WtCom= 9.40D-01 WtEn= 6.02D-02
 Coeff-Com:  0.697D-01 0.930D+00
 Coeff-En:   0.136D+00 0.864D+00
 Coeff:      0.737D-01 0.926D+00
 Gap=     0.235 Goal=   None    Shift=    0.000
 RMSDP=2.58D-03 MaxDP=1.59D-01 DE=-9.65D-02 OVMax= 9.82D-02

 Cycle   3  Pass 0  IDiag  1:
 RMSU=  1.26D-03    CP:  9.90D-01  4.79D-01
 E= -382.842941914930     Delta-E=       -0.123825917622 Rises=F Damp=F
 DIIS: error= 3.53D-03 at cycle   3 NSaved=   3.
 NSaved= 3 IEnMin= 3 EnMin= -382.842941914930     IErMin= 3 ErrMin= 3.53D-03
 ErrMax= 3.53D-03  0.00D+00 EMaxC= 1.00D-01 BMatC= 3.67D-03 BMatP= 1.23D-02
 IDIUse=3 WtCom= 9.65D-01 WtEn= 3.53D-02
 Coeff-Com: -0.247D-01 0.310D+00 0.715D+00
 Coeff-En:   0.000D+00 0.000D+00 0.100D+01
 Coeff:     -0.238D-01 0.299D+00 0.725D+00
 Gap=     0.189 Goal=   None    Shift=    0.000
 RMSDP=4.29D-04 MaxDP=2.19D-02 DE=-1.24D-01 OVMax= 1.66D-02

 Cycle   4  Pass 0  IDiag  1:
 RMSU=  2.36D-04    CP:  9.94D-01  5.61D-01  9.47D-01
 E= -382.844298026551     Delta-E=       -0.001356111620 Rises=F Damp=F
 DIIS: error= 1.98D-03 at cycle   4 NSaved=   4.
 NSaved= 4 IEnMin= 4 EnMin= -382.844298026551     IErMin= 4 ErrMin= 1.98D-03
 ErrMax= 1.98D-03  0.00D+00 EMaxC= 1.00D-01 BMatC= 1.45D-03 BMatP= 3.67D-03
 IDIUse=3 WtCom= 9.80D-01 WtEn= 1.98D-02
 Coeff-Com: -0.187D-01 0.103D+00 0.436D+00 0.480D+00
 Coeff-En:   0.000D+00 0.000D+00 0.314D+00 0.686D+00
 Coeff:     -0.183D-01 0.101D+00 0.434D+00 0.484D+00
 Gap=     0.192 Goal=   None    Shift=    0.000
 RMSDP=1.94D-04 MaxDP=1.01D-02 DE=-1.36D-03 OVMax= 1.02D-02

 Cycle   5  Pass 0  IDiag  1:
 RMSU=  6.66D-05    CP:  9.92D-01  5.29D-01  9.66D-01  5.09D-01
 E= -382.845471067452     Delta-E=       -0.001173040901 Rises=F Damp=F
 DIIS: error= 5.27D-04 at cycle   5 NSaved=   5.
 NSaved= 5 IEnMin= 5 EnMin= -382.845471067452     IErMin= 5 ErrMin= 5.27D-04
 ErrMax= 5.27D-04  0.00D+00 EMaxC= 1.00D-01 BMatC= 4.58D-05 BMatP= 1.45D-03
 IDIUse=3 WtCom= 9.95D-01 WtEn= 5.27D-03
 Coeff-Com: -0.554D-02 0.121D-01 0.105D+00 0.205D+00 0.684D+00
 Coeff-En:   0.000D+00 0.000D+00 0.000D+00 0.000D+00 0.100D+01
 Coeff:     -0.551D-02 0.121D-01 0.104D+00 0.204D+00 0.685D+00
 Gap=     0.192 Goal=   None    Shift=    0.000
 RMSDP=4.71D-05 MaxDP=2.31D-03 DE=-1.17D-03 OVMax= 1.53D-03

 Cycle   6  Pass 0  IDiag  1:
 RMSU=  1.63D-05    CP:  9.92D-01  5.38D-01  9.65D-01  5.65D-01  8.04D-01
 E= -382.845506557388     Delta-E=       -0.000035489936 Rises=F Damp=F
 DIIS: error= 1.06D-04 at cycle   6 NSaved=   6.
 NSaved= 6 IEnMin= 6 EnMin= -382.845506557388     IErMin= 6 ErrMin= 1.06D-04
 ErrMax= 1.06D-04  0.00D+00 EMaxC= 1.00D-01 BMatC= 2.72D-06 BMatP= 4.58D-05
 IDIUse=3 WtCom= 9.99D-01 WtEn= 1.06D-03
 Coeff-Com: -0.225D-02 0.354D-02 0.420D-01 0.915D-01 0.342D+00 0.523D+00
 Coeff-En:   0.000D+00 0.000D+00 0.000D+00 0.000D+00 0.000D+00 0.100D+01
 Coeff:     -0.225D-02 0.354D-02 0.420D-01 0.915D-01 0.342D+00 0.523D+00
 Gap=     0.192 Goal=   None    Shift=    0.000
 RMSDP=6.72D-06 MaxDP=1.75D-04 DE=-3.55D-05 OVMax= 4.60D-04

 Initial convergence to 1.0D-05 achieved.  Increase integral accuracy.
 Cycle   7  Pass 1  IDiag  1:
 E= -382.845491730055     Delta-E=        0.000014827333 Rises=F Damp=F
 DIIS: error= 1.38D-04 at cycle   1 NSaved=   1.
 NSaved= 1 IEnMin= 1 EnMin= -382.845491730055     IErMin= 1 ErrMin= 1.38D-04
 ErrMax= 1.38D-04  0.00D+00 EMaxC= 1.00D-01 BMatC= 8.87D-07 BMatP= 8.87D-07
 IDIUse=3 WtCom= 9.99D-01 WtEn= 1.38D-03
 Coeff-Com:  0.100D+01
 Coeff-En:   0.100D+01
 Coeff:      0.100D+01
 Gap=     0.192 Goal=   None    Shift=    0.000
 RMSDP=6.72D-06 MaxDP=1.75D-04 DE= 1.48D-05 OVMax= 2.34D-04

 Cycle   8  Pass 1  IDiag  1:
 RMSU=  6.26D-05    CP:  9.99D-01
 E= -382.845491755355     Delta-E=       -0.000000025300 Rises=F Damp=F
 DIIS: error= 4.68D-05 at cycle   2 NSaved=   2.
 NSaved= 2 IEnMin= 2 EnMin= -382.845491755355     IErMin= 2 ErrMin= 4.68D-05
 ErrMax= 4.68D-05  0.00D+00 EMaxC= 1.00D-01 BMatC= 3.44D-07 BMatP= 8.87D-07
 IDIUse=1 WtCom= 1.00D+00 WtEn= 0.00D+00
 Coeff-Com:  0.340D+00 0.660D+00
 Coeff:      0.340D+00 0.660D+00
 Gap=     0.192 Goal=   None    Shift=    0.000
 RMSDP=4.06D-06 MaxDP=1.82D-04 DE=-2.53D-08 OVMax= 2.41D-04

 Cycle   9  Pass 1  IDiag  1:
 RMSU=  3.03D-06    CP:  9.99D-01  1.04D+00
 E= -382.845491940753     Delta-E=       -0.000000185398 Rises=F Damp=F
 DIIS: error= 2.66D-05 at cycle   3 NSaved=   3.
 NSaved= 3 IEnMin= 3 EnMin= -382.845491940753     IErMin= 3 ErrMin= 2.66D-05
 ErrMax= 2.66D-05  0.00D+00 EMaxC= 1.00D-01 BMatC= 1.46D-07 BMatP= 3.44D-07
 IDIUse=1 WtCom= 1.00D+00 WtEn= 0.00D+00
 Coeff-Com:  0.500D-02 0.394D+00 0.601D+00
 Coeff:      0.500D-02 0.394D+00 0.601D+00
 Gap=     0.192 Goal=   None    Shift=    0.000
 RMSDP=1.27D-06 MaxDP=5.58D-05 DE=-1.85D-07 OVMax= 9.64D-05

 Cycle  10  Pass 1  IDiag  1:
 RMSU=  3.00D-07    CP:  9.99D-01  1.03D+00  6.25D-01
 E= -382.845492072492     Delta-E=       -0.000000131739 Rises=F Damp=F
 DIIS: error= 2.58D-06 at cycle   4 NSaved=   4.
 NSaved= 4 IEnMin= 4 EnMin= -382.845492072492     IErMin= 4 ErrMin= 2.58D-06
 ErrMax= 2.58D-06  0.00D+00 EMaxC= 1.00D-01 BMatC= 1.82D-09 BMatP= 1.46D-07
 IDIUse=1 WtCom= 1.00D+00 WtEn= 0.00D+00
 Coeff-Com: -0.455D-03 0.206D+00 0.322D+00 0.472D+00
 Coeff:     -0.455D-03 0.206D+00 0.322D+00 0.472D+00
 Gap=     0.192 Goal=   None    Shift=    0.000
 RMSDP=2.75D-07 MaxDP=1.43D-05 DE=-1.32D-07 OVMax= 8.82D-06

 Cycle  11  Pass 1  IDiag  1:
 RMSU=  1.50D-07    CP:  9.99D-01  1.04D+00  6.59D-01  7.93D-01
 E= -382.845492073717     Delta-E=       -0.000000001225 Rises=F Damp=F
 DIIS: error= 6.61D-07 at cycle   5 NSaved=   5.
 NSaved= 5 IEnMin= 5 EnMin= -382.845492073717     IErMin= 5 ErrMin= 6.61D-07
 ErrMax= 6.61D-07  0.00D+00 EMaxC= 1.00D-01 BMatC= 1.47D-10 BMatP= 1.82D-09
 IDIUse=1 WtCom= 1.00D+00 WtEn= 0.00D+00
 Coeff-Com: -0.656D-03 0.890D-01 0.140D+00 0.277D+00 0.495D+00
 Coeff:     -0.656D-03 0.890D-01 0.140D+00 0.277D+00 0.495D+00
 Gap=     0.192 Goal=   None    Shift=    0.000
 RMSDP=6.20D-08 MaxDP=3.34D-06 DE=-1.23D-09 OVMax= 2.30D-06

 Cycle  12  Pass 1  IDiag  1:
 RMSU=  3.15D-08    CP:  9.99D-01  1.04D+00  6.50D-01  8.11D-01  7.64D-01
 E= -382.845492073825     Delta-E=       -0.000000000108 Rises=F Damp=F
 DIIS: error= 4.11D-08 at cycle   6 NSaved=   6.
 NSaved= 6 IEnMin= 6 EnMin= -382.845492073825     IErMin= 6 ErrMin= 4.11D-08
 ErrMax= 4.11D-08  0.00D+00 EMaxC= 1.00D-01 BMatC= 1.87D-13 BMatP= 1.47D-10
 IDIUse=1 WtCom= 1.00D+00 WtEn= 0.00D+00
 Coeff-Com: -0.816D-04 0.927D-02 0.144D-01 0.322D-01 0.627D-01 0.881D+00
 Coeff:     -0.816D-04 0.927D-02 0.144D-01 0.322D-01 0.627D-01 0.881D+00
 Gap=     0.192 Goal=   None    Shift=    0.000
 RMSDP=8.95D-09 MaxDP=3.67D-07 DE=-1.08D-10 OVMax= 1.55D-07

 SCF Done:  E(RB3LYP) =  -382.845492074     A.U. after   12 cycles
            NFock= 12  Conv=0.89D-08     -V/T= 2.0047
 KE= 3.810367206043D+02 PE=-1.584762560044D+03 EE= 4.758521307218D+02
 Leave Link  502 at Tue Jan 14 14:13:22 2025, MaxMem=   104857600 cpu:              92.2 elap:              92.5
 (Enter /sw/cluster/pub/apps//g16/l601.exe)
 Copying SCF densities to generalized density rwf, IOpCl= 0 IROHF=0.

 **********************************************************************

            Population analysis using the SCF density.

 **********************************************************************

 Alpha  occ. eigenvalues --  -19.15648 -19.15647 -10.23287 -10.23286 -10.18052
 Alpha  occ. eigenvalues --  -10.18050 -10.17628 -10.17626  -1.06220  -1.06115
 Alpha  occ. eigenvalues --   -0.85586  -0.75890  -0.73849  -0.64433  -0.60891
 Alpha  occ. eigenvalues --   -0.56029  -0.55103  -0.48429  -0.45037  -0.44264
 Alpha  occ. eigenvalues --   -0.43223  -0.42377  -0.39665  -0.39086  -0.37702
 Alpha  occ. eigenvalues --   -0.34645  -0.31745  -0.26470  -0.21261
 Alpha virt. eigenvalues --   -0.02074   0.01269   0.02112   0.03066   0.05656
 Alpha virt. eigenvalues --    0.07852   0.11339   0.11423   0.13431   0.14731
 Alpha virt. eigenvalues --    0.16320   0.17854   0.20586   0.22343   0.22883
 Alpha virt. eigenvalues --    0.23028   0.24150   0.24233   0.26902   0.27973
 Alpha virt. eigenvalues --    0.28466   0.30906   0.31886   0.32735   0.33309
 Alpha virt. eigenvalues --    0.34895   0.36439   0.36930   0.38140   0.38916
 Alpha virt. eigenvalues --    0.40246   0.42072   0.42896   0.44314   0.44889
 Alpha virt. eigenvalues --    0.45359   0.46714   0.48813   0.49261   0.49385
 Alpha virt. eigenvalues --    0.49821   0.53682   0.55936   0.57170   0.61198
 Alpha virt. eigenvalues --    0.61525   0.62933   0.64395   0.64657   0.69311
 Alpha virt. eigenvalues --    0.69570   0.71030   0.73548   0.74156   0.77193
 Alpha virt. eigenvalues --    0.80870   0.80905   0.81891   0.83718   0.83912
 Alpha virt. eigenvalues --    0.86121   0.87267   0.87983   0.90026   1.01696
 Alpha virt. eigenvalues --    1.02164   1.02800   1.03621   1.07793   1.08952
 Alpha virt. eigenvalues --    1.09389   1.15377   1.18690   1.19392   1.20782
 Alpha virt. eigenvalues --    1.23145   1.23367   1.24522   1.27100   1.29683
 Alpha virt. eigenvalues --    1.36774   1.37168   1.37268   1.37488   1.44092
 Alpha virt. eigenvalues --    1.46611   1.48449   1.49555   1.50259   1.51748
 Alpha virt. eigenvalues --    1.53745   1.57908   1.62382   1.64320   1.64769
 Alpha virt. eigenvalues --    1.67290   1.67902   1.70604   1.72722   1.72962
 Alpha virt. eigenvalues --    1.73152   1.79354   1.82060   1.83391   1.84231
 Alpha virt. eigenvalues --    1.87310   1.87556   1.90554   1.95164   1.98069
 Alpha virt. eigenvalues --    1.98258   2.02383   2.04408   2.10622   2.11970
 Alpha virt. eigenvalues --    2.13242   2.13333   2.17377   2.18370   2.19870
 Alpha virt. eigenvalues --    2.24672   2.25517   2.29048   2.32491   2.34668
 Alpha virt. eigenvalues --    2.37477   2.40754   2.45163   2.46118   2.51043
 Alpha virt. eigenvalues --    2.53588   2.56175   2.59349   2.60527   2.63864
 Alpha virt. eigenvalues --    2.65100   2.67840   2.68989   2.69751   2.69883
 Alpha virt. eigenvalues --    2.70063   2.72729   2.76176   2.78516   2.79487
 Alpha virt. eigenvalues --    2.79756   2.84234   2.86393   2.88985   2.89138
 Alpha virt. eigenvalues --    2.89788   2.90989   2.92529   2.93449   2.95765
 Alpha virt. eigenvalues --    2.98256   3.01694   3.08281   3.10229   3.10827
 Alpha virt. eigenvalues --    3.12577   3.14775   3.15387   3.16917   3.18149
 Alpha virt. eigenvalues --    3.19016   3.20605   3.22611   3.25613   3.29189
 Alpha virt. eigenvalues --    3.30398   3.34610   3.35183   3.36951   3.37923
 Alpha virt. eigenvalues --    3.37928   3.40343   3.45414   3.46223   3.47903
 Alpha virt. eigenvalues --    3.49701   3.52304   3.52741   3.55454   3.55696
 Alpha virt. eigenvalues --    3.64069   3.73357   3.74344   3.78062   3.80012
 Alpha virt. eigenvalues --    3.82419   3.94024   3.94530   3.98906   4.00387
 Alpha virt. eigenvalues --    4.04351   4.04358   4.10036   4.15168   4.18436
 Alpha virt. eigenvalues --    4.18530   4.19372   4.22354   4.25133   4.26047
 Alpha virt. eigenvalues --    4.30980   4.37982   4.43612   4.54288   4.55413
 Alpha virt. eigenvalues --    4.60855   4.67147   4.73431   4.78401   4.81414
 Alpha virt. eigenvalues --    4.82985   4.87772   4.94751   5.12676   5.16087
 Alpha virt. eigenvalues --    5.24482   5.24593   5.26068   5.39110   5.43443
 Alpha virt. eigenvalues --    5.46320   5.48422   5.54700   5.55138   5.74818
 Alpha virt. eigenvalues --    5.79415   5.92506   6.03565   6.23187   6.29302
 Alpha virt. eigenvalues --    6.39726   6.41384   6.41390   6.41606   6.69321
 Alpha virt. eigenvalues --    6.70512   6.77914   6.79467   6.94591   6.99110
 Alpha virt. eigenvalues --    7.25250   7.28054  22.03075  22.64739  22.66469
 Alpha virt. eigenvalues --   22.68471  22.90104  23.28485  43.84115  43.93820
          Condensed to atoms (all electrons):
               1          2          3          4          5          6
     1  C    4.681789   0.460908   0.043910  -0.098955   0.069835   0.355947
     2  C    0.460908   5.144981   0.241256   0.069835  -0.066362  -0.009303
     3  C    0.043910   0.241256   5.353283   0.355947  -0.009303  -0.089915
     4  C   -0.098955   0.069835   0.355947   4.681789   0.460908   0.043910
     5  C    0.069835  -0.066362  -0.009303   0.460908   5.144981   0.241256
     6  C    0.355947  -0.009303  -0.089915   0.043910   0.241256   5.353283
     7  O    0.369982  -0.051516   0.000266  -0.000329   0.014441  -0.103275
     8  H   -0.043184   0.403632  -0.037477   0.007602  -0.004864   0.015993
     9  H    0.010444  -0.035015   0.424660  -0.066121   0.009484  -0.002625
    10  O   -0.000329   0.014441  -0.103275   0.369982  -0.051516   0.000266
    11  H    0.007602  -0.004864   0.015993  -0.043184   0.403632  -0.037477
    12  H   -0.066121   0.009484  -0.002625   0.010444  -0.035015   0.424660
    13  H   -0.001266   0.008062  -0.021326  -0.038069   0.005374   0.000344
    14  H   -0.038069   0.005374   0.000344  -0.001266   0.008062  -0.021326
               7          8          9         10         11         12
     1  C    0.369982  -0.043184   0.010444  -0.000329   0.007602  -0.066121
     2  C   -0.051516   0.403632  -0.035015   0.014441  -0.004864   0.009484
     3  C    0.000266  -0.037477   0.424660  -0.103275   0.015993  -0.002625
     4  C   -0.000329   0.007602  -0.066121   0.369982  -0.043184   0.010444
     5  C    0.014441  -0.004864   0.009484  -0.051516   0.403632  -0.035015
     6  C   -0.103275   0.015993  -0.002625   0.000266  -0.037477   0.424660
     7  O    7.876255   0.005929  -0.000137  -0.000001  -0.000117  -0.004967
     8  H    0.005929   0.547212  -0.008096  -0.000117   0.000085  -0.000318
     9  H   -0.000137  -0.008096   0.570158  -0.004967  -0.000318   0.000053
    10  O   -0.000001  -0.000117  -0.004967   7.876255   0.005929  -0.000137
    11  H   -0.000117   0.000085  -0.000318   0.005929   0.547212  -0.008096
    12  H   -0.004967  -0.000318   0.000053  -0.000137  -0.008096   0.570158
    13  H   -0.000002  -0.000023   0.002694   0.299858  -0.001275   0.000047
    14  H    0.299858  -0.001275   0.000047  -0.000002  -0.000023   0.002694
              13         14
     1  C   -0.001266  -0.038069
     2  C    0.008062   0.005374
     3  C   -0.021326   0.000344
     4  C   -0.038069  -0.001266
     5  C    0.005374   0.008062
     6  C    0.000344  -0.021326
     7  O   -0.000002   0.299858
     8  H   -0.000023  -0.001275
     9  H    0.002694   0.000047
    10  O    0.299858  -0.000002
    11  H   -0.001275  -0.000023
    12  H    0.000047   0.002694
    13  H    0.438698   0.000000
    14  H    0.000000   0.438698
 Mulliken charges:
               1
     1  C    0.247507
     2  C   -0.190913
     3  C   -0.171736
     4  C    0.247507
     5  C   -0.190913
     6  C   -0.171736
     7  O   -0.406386
     8  H    0.114903
     9  H    0.099741
    10  O   -0.406386
    11  H    0.114903
    12  H    0.099741
    13  H    0.306884
    14  H    0.306884
 Sum of Mulliken charges =  -0.00000
 Mulliken charges with hydrogens summed into heavy atoms:
               1
     1  C    0.247507
     2  C   -0.076010
     3  C   -0.071995
     4  C    0.247507
     5  C   -0.076010
     6  C   -0.071995
     7  O   -0.099501
    10  O   -0.099501
 Electronic spatial extent (au):  <R**2>=            947.3741
 Charge=             -0.0000 electrons
 Dipole moment (field-independent basis, Debye):
    X=              0.0000    Y=             -0.0000    Z=             -0.0000  Tot=              0.0000
 Quadrupole moment (field-independent basis, Debye-Ang):
   XX=            -51.5023   YY=            -32.0513   ZZ=            -50.1800
   XY=             -2.9489   XZ=             -0.0000   YZ=              0.0000
 Traceless Quadrupole moment (field-independent basis, Debye-Ang):
   XX=             -6.9245   YY=             12.5266   ZZ=             -5.6021
   XY=             -2.9489   XZ=             -0.0000   YZ=              0.0000
 Octapole moment (field-independent basis, Debye-Ang**2):
  XXX=              0.0000  YYY=             -0.0000  ZZZ=             -0.0000  XYY=             -0.0000
  XXY=             -0.0000  XXZ=              0.0000  XZZ=             -0.0000  YZZ=              0.0000
  YYZ=              0.0000  XYZ=             -0.0000
 Hexadecapole moment (field-independent basis, Debye-Ang**3):
 XXXX=           -763.8116 YYYY=           -326.3248 ZZZZ=            -54.7101 XXXY=            120.5999
 XXXZ=             -0.0000 YYYX=             36.5474 YYYZ=              0.0000 ZZZX=             -0.0000
 ZZZY=              0.0000 XXYY=           -132.2742 XXZZ=           -131.4081 YYZZ=            -89.4800
 XXYZ=              0.0000 YYXZ=             -0.0000 ZZXY=             37.6104
 N-N= 3.450282166440D+02 E-N=-1.584762573122D+03  KE= 3.810367206043D+02
 No NMR shielding tensors so no spin-rotation constants.
 Leave Link  601 at Tue Jan 14 14:13:22 2025, MaxMem=   104857600 cpu:               0.1 elap:               0.1
 (Enter /sw/cluster/pub/apps//g16/l9999.exe)
 1\1\GINC-N02\SP\RB3LYP\def2TZVP\C6H6O2\UNKNOWN\14-Jan-2025\0\\#P B3LYP
 /def2tzvp nosymm Density=Current\\Single-Point\\0,1\C,0,1.20720217,-0.
 70065789,0.\C,0,1.20720217,0.68947114,0.\C,0,0.00509579,1.38532901,0.\
 C,0,-1.20720217,0.70065789,0.\C,0,-1.20720217,-0.68947114,0.\C,0,-0.00
 509579,-1.38532901,0.\O,0,2.42158347,-1.33812988,0.\H,0,2.15154731,1.2
 1736109,0.\H,0,0.01538568,2.47005037,0.\O,0,-2.42158347,1.33812988,0.\
 H,0,-2.15154731,-1.21736109,0.\H,0,-0.01538568,-2.47005037,0.\H,0,-2.2
 852204,2.29168294,0.\H,0,2.2852204,-2.29168294,0.\\Version=ES64L-G16Re
 vA.03\HF=-382.8454921\RMSD=8.948e-09\Dipole=0.,0.,0.\Quadrupole=-5.148
 1746,9.3132221,-4.1650475,-2.192463,0.,0.\PG=C02H [SGH(C6H6O2)]\\@


 HE WHO LAUGHS LAST PROBABLY DIDN'T GET THE JOKE.
 Job cpu time:       0 days  0 hours  1 minutes 34.7 seconds.
 Elapsed time:       0 days  0 hours  1 minutes 35.1 seconds.
 File lengths (MBytes):  RWF=     49 Int=      0 D2E=      0 Chk=      6 Scr=      1
 Normal termination of Gaussian 16 at Tue Jan 14 14:13:22 2025.
