 Entering Gaussian System, Link 0=g16
 Initial command:
 /sw/cluster/pub/apps//g16/l1.exe "/data/mmaximo/27772/Gau-1919668.inp" -scrdir="/data/mmaximo/27772/"
 Entering Link 1 = /sw/cluster/pub/apps//g16/l1.exe PID=   1919669.
  
 Copyright (c) 1988,1990,1992,1993,1995,1998,2003,2009,2016,
            Gaussian, Inc.  All Rights Reserved.
  
 This is part of the Gaussian(R) 16 program.  It is based on
 the Gaussian(R) 09 system (copyright 2009, Gaussian, Inc.),
 the Gaussian(R) 03 system (copyright 2003, Gaussian, Inc.),
 the Gaussian(R) 98 system (copyright 1998, Gaussian, Inc.),
 the Gaussian(R) 94 system (copyright 1995, Gaussian, Inc.),
 the Gaussian 92(TM) system (copyright 1992, Gaussian, Inc.),
 the Gaussian 90(TM) system (copyright 1990, Gaussian, Inc.),
 the Gaussian 88(TM) system (copyright 1988, Gaussian, Inc.),
 the Gaussian 86(TM) system (copyright 1986, Carnegie Mellon
 University), and the Gaussian 82(TM) system (copyright 1983,
 Carnegie Mellon University). Gaussian is a federally registered
 trademark of Gaussian, Inc.
  
 This software contains proprietary and confidential information,
 including trade secrets, belonging to Gaussian, Inc.
  
 This software is provided under written license and may be
 used, copied, transmitted, or stored only in accord with that
 written license.
  
 The following legend is applicable only to US Government
 contracts under FAR:
  
                    RESTRICTED RIGHTS LEGEND
  
 Use, reproduction and disclosure by the US Government is
 subject to restrictions as set forth in subparagraphs (a)
 and (c) of the Commercial Computer Software - Restricted
 Rights clause in FAR 52.227-19.
  
 Gaussian, Inc.
 340 Quinnipiac St., Bldg. 40, Wallingford CT 06492
  
  
 ---------------------------------------------------------------
 Warning -- This program may not be used in any manner that
 competes with the business of Gaussian, Inc. or will provide
 assistance to any competitor of Gaussian, Inc.  The licensee
 of this program is prohibited from giving any competitor of
 Gaussian, Inc. access to this program.  By using this program,
 the user acknowledges that Gaussian, Inc. is engaged in the
 business of creating and licensing software in the field of
 computational chemistry and represents and warrants to the
 licensee that it is not a competitor of Gaussian, Inc. and that
 it will not use this program in any manner prohibited above.
 ---------------------------------------------------------------
  

 Cite this work as:
 Gaussian 16, Revision A.03,
 M. J. Frisch, G. W. Trucks, H. B. Schlegel, G. E. Scuseria, 
 M. A. Robb, J. R. Cheeseman, G. Scalmani, V. Barone, 
 G. A. Petersson, H. Nakatsuji, X. Li, M. Caricato, A. V. Marenich, 
 J. Bloino, B. G. Janesko, R. Gomperts, B. Mennucci, H. P. Hratchian, 
 J. V. Ortiz, A. F. Izmaylov, J. L. Sonnenberg, D. Williams-Young, 
 F. Ding, F. Lipparini, F. Egidi, J. Goings, B. Peng, A. Petrone, 
 T. Henderson, D. Ranasinghe, V. G. Zakrzewski, J. Gao, N. Rega, 
 G. Zheng, W. Liang, M. Hada, M. Ehara, K. Toyota, R. Fukuda, 
 J. Hasegawa, M. Ishida, T. Nakajima, Y. Honda, O. Kitao, H. Nakai, 
 T. Vreven, K. Throssell, J. A. Montgomery, Jr., J. E. Peralta, 
 F. Ogliaro, M. J. Bearpark, J. J. Heyd, E. N. Brothers, K. N. Kudin, 
 V. N. Staroverov, T. A. Keith, R. Kobayashi, J. Normand, 
 K. Raghavachari, A. P. Rendell, J. C. Burant, S. S. Iyengar, 
 J. Tomasi, M. Cossi, J. M. Millam, M. Klene, C. Adamo, R. Cammi, 
 J. W. Ochterski, R. L. Martin, K. Morokuma, O. Farkas, 
 J. B. Foresman, and D. J. Fox, Gaussian, Inc., Wallingford CT, 2016.
 
 ******************************************
 Gaussian 16:  ES64L-G16RevA.03 25-Dec-2016
                14-Jan-2025 
 ******************************************
 %chk=C6H5BH3-.chk
 ----------------------------------------
 #P B3LYP/def2tzvp nosymm Density=Current
 ----------------------------------------
 1/30=1,38=1,172=1/1;
 2/12=2,15=1,17=6,18=5,40=1/2;
 3/5=44,7=101,11=2,25=1,30=1,74=-5/1,2,3;
 4//1;
 5/5=2,38=5/2;
 6/7=2,8=2,9=2,10=2,22=-1,28=1/1;
 99/5=1,9=1/99;
 Leave Link    1 at Tue Jan 14 15:00:34 2025, MaxMem=           0 cpu:               0.0 elap:               0.0
 (Enter /sw/cluster/pub/apps//g16/l101.exe)
 ------------
 Single-Point
 ------------
 Symbolic Z-matrix:
 Charge = -1 Multiplicity = 1
 C                    -1.89137   0.        0.00889 
 C                    -1.17856   1.19671   0.01005 
 C                     0.21376   1.18615   0.01005 
 C                     0.97187   0.        0.00425 
 C                     0.21376  -1.18615   0.01005 
 C                    -1.17856  -1.19671   0.01005 
 H                    -2.97648   0.        0.01274 
 H                    -1.71331   2.14291   0.0151 
 H                     0.74572   2.13321   0.01782 
 H                     0.74572  -2.13321   0.01782 
 H                    -1.71331  -2.14291   0.0151 
 B                     2.59264   0.       -0.03845 
 H                     3.04108   1.00932   0.50548 
 H                     3.04108  -1.00932   0.50548 
 H                     2.96084   0.       -1.21721 
 
 ITRead=  0  0  0  0  0  0  0  0  0  0  0  0  0  0  0
 MicOpt= -1 -1 -1 -1 -1 -1 -1 -1 -1 -1 -1 -1 -1 -1 -1
 NAtoms=     15 NQM=       15 NQMF=       0 NMMI=      0 NMMIF=      0
                NMic=       0 NMicF=      0.
                    Isotopes and Nuclear Properties:
 (Nuclear quadrupole moments (NQMom) in fm**2, nuclear magnetic moments (NMagM)
  in nuclear magnetons)

  Atom         1           2           3           4           5           6           7           8           9          10
 IAtWgt=          12          12          12          12          12          12           1           1           1           1
 AtmWgt=  12.0000000  12.0000000  12.0000000  12.0000000  12.0000000  12.0000000   1.0078250   1.0078250   1.0078250   1.0078250
 NucSpn=           0           0           0           0           0           0           1           1           1           1
 AtZEff=  -0.0000000  -0.0000000  -0.0000000  -0.0000000  -0.0000000  -0.0000000  -0.0000000  -0.0000000  -0.0000000  -0.0000000
 NQMom=    0.0000000   0.0000000   0.0000000   0.0000000   0.0000000   0.0000000   0.0000000   0.0000000   0.0000000   0.0000000
 NMagM=    0.0000000   0.0000000   0.0000000   0.0000000   0.0000000   0.0000000   2.7928460   2.7928460   2.7928460   2.7928460
 AtZNuc=   6.0000000   6.0000000   6.0000000   6.0000000   6.0000000   6.0000000   1.0000000   1.0000000   1.0000000   1.0000000

  Atom        11          12          13          14          15
 IAtWgt=           1          11           1           1           1
 AtmWgt=   1.0078250  11.0093053   1.0078250   1.0078250   1.0078250
 NucSpn=           1           3           1           1           1
 AtZEff=  -0.0000000  -0.0000000  -0.0000000  -0.0000000  -0.0000000
 NQMom=    0.0000000   4.0590000   0.0000000   0.0000000   0.0000000
 NMagM=    2.7928460   2.6886370   2.7928460   2.7928460   2.7928460
 AtZNuc=   1.0000000   5.0000000   1.0000000   1.0000000   1.0000000
 Leave Link  101 at Tue Jan 14 15:00:34 2025, MaxMem=   104857600 cpu:               0.0 elap:               0.0
 (Enter /sw/cluster/pub/apps//g16/l202.exe)
                          Input orientation:                          
 ---------------------------------------------------------------------
 Center     Atomic      Atomic             Coordinates (Angstroms)
 Number     Number       Type             X           Y           Z
 ---------------------------------------------------------------------
      1          6           0       -1.891370    0.000000    0.008888
      2          6           0       -1.178556    1.196707    0.010046
      3          6           0        0.213762    1.186154    0.010046
      4          6           0        0.971866    0.000000    0.004252
      5          6           0        0.213762   -1.186154    0.010046
      6          6           0       -1.178556   -1.196707    0.010046
      7          1           0       -2.976484    0.000000    0.012741
      8          1           0       -1.713310    2.142907    0.015098
      9          1           0        0.745723    2.133212    0.017815
     10          1           0        0.745723   -2.133212    0.017815
     11          1           0       -1.713310   -2.142907    0.015098
     12          5           0        2.592641    0.000000   -0.038454
     13          1           0        3.041081    1.009317    0.505481
     14          1           0        3.041081   -1.009317    0.505481
     15          1           0        2.960844    0.000000   -1.217213
 ---------------------------------------------------------------------
                    Distance matrix (angstroms):
                    1          2          3          4          5
     1  C    0.000000
     2  C    1.392915   0.000000
     3  C    2.416308   1.392358   0.000000
     4  C    2.863240   2.460987   1.407735   0.000000
     5  C    2.416308   2.759814   2.372308   1.407735   0.000000
     6  C    1.392915   2.393414   2.759814   2.460987   1.392358
     7  H    1.085121   2.159782   3.403621   3.948359   3.403621
     8  H    2.150301   1.086868   2.151513   3.435453   3.846593
     9  H    3.391892   2.140082   1.086260   2.145208   3.361731
    10  H    3.391892   3.845942   3.361731   2.145208   1.086260
    11  H    2.150301   3.382160   3.846593   3.435453   2.151513
    12  B    4.484261   3.956815   2.658642   1.621338   2.658642
    13  H    5.059091   4.252753   2.875841   2.356184   3.613763
    14  H    5.059091   4.787205   3.613763   2.356184   2.875841
    15  H    5.004728   4.480280   3.234128   2.334097   3.234128
                    6          7          8          9         10
     6  C    0.000000
     7  H    2.159782   0.000000
     8  H    3.382160   2.487502   0.000000
     9  H    3.845942   4.290157   2.459054   0.000000
    10  H    2.140082   4.290157   4.932752   4.266424   0.000000
    11  H    1.086868   2.487502   4.285814   4.932752   2.459054
    12  B    3.956815   5.569360   4.810003   2.822209   2.822209
    13  H    4.787205   6.121487   4.912203   2.601851   3.921986
    14  H    4.252753   6.121487   5.725489   3.921986   2.601851
    15  H    4.480280   6.063386   5.287566   3.314008   3.314008
                   11         12         13         14         15
    11  H    0.000000
    12  B    4.810003   0.000000
    13  H    5.725489   1.231131   0.000000
    14  H    4.912203   1.231131   2.018634   0.000000
    15  H    5.287566   1.234928   1.998208   1.998208   0.000000
 Symmetry turned off by external request.
 Stoichiometry    C6H8B(1-)
 Framework group  CS[SG(C2H2B),X(C4H6)]
 Deg. of freedom    22
 Full point group                 CS      NOp   2
 Rotational constants (GHZ):           5.5762921           2.4279942           1.7145697
 Leave Link  202 at Tue Jan 14 15:00:34 2025, MaxMem=   104857600 cpu:               0.0 elap:               0.0
 (Enter /sw/cluster/pub/apps//g16/l301.exe)
 Standard basis: def2TZVP (5D, 7F)
 Ernie: Thresh=  0.10000D-02 Tol=  0.10000D-05 Strict=F.
   265 basis functions,   421 primitive gaussians,   300 cartesian basis functions
    25 alpha electrons       25 beta electrons
       nuclear repulsion energy       255.8404451590 Hartrees.
 IExCor=  402 DFT=T Ex+Corr=B3LYP ExCW=0 ScaHFX=  0.200000
 ScaDFX=  0.800000  0.720000  1.000000  0.810000 ScalE2=  1.000000  1.000000
 IRadAn=      5 IRanWt=     -1 IRanGd=            0 ICorTp=0 IEmpDi=  4
 NAtoms=   15 NActive=   15 NUniq=   15 SFac= 1.00D+00 NAtFMM=   60 NAOKFM=F Big=F
 Integral buffers will be    131072 words long.
 Raffenetti 2 integral format.
 Two-electron integral symmetry is turned off.
 Leave Link  301 at Tue Jan 14 15:00:34 2025, MaxMem=   104857600 cpu:               0.0 elap:               0.0
 (Enter /sw/cluster/pub/apps//g16/l302.exe)
 NPDir=0 NMtPBC=     1 NCelOv=     1 NCel=       1 NClECP=     1 NCelD=      1
         NCelK=      1 NCelE2=     1 NClLst=     1 CellRange=     0.0.
 One-electron integrals computed using PRISM.
   1 Symmetry operations used in ECPInt.
 ECPInt:  NShTT=    5995 NPrTT=   17944 LenC2=    5917 LenP2D=   14573.
 LDataN:  DoStor=T MaxTD1= 6 Len=  172
 NBasis=   265 RedAO= T EigKep=  8.08D-06  NBF=   265
 NBsUse=   265 1.00D-06 EigRej= -1.00D+00 NBFU=   265
 Precomputing XC quadrature grid using
 IXCGrd= 4 IRadAn=           5 IRanWt=          -1 IRanGd=           0 AccXCQ= 0.00D+00.
 Generated NRdTot=       0 NPtTot=           0 NUsed=           0 NTot=          32
 NSgBfM=   299   299   299   299   299 MxSgAt=    15 MxSgA2=    15.
 Leave Link  302 at Tue Jan 14 15:00:34 2025, MaxMem=   104857600 cpu:               0.2 elap:               0.2
 (Enter /sw/cluster/pub/apps//g16/l303.exe)
 DipDrv:  MaxL=1.
 Leave Link  303 at Tue Jan 14 15:00:34 2025, MaxMem=   104857600 cpu:               0.0 elap:               0.0
 (Enter /sw/cluster/pub/apps//g16/l401.exe)
 ExpMin= 6.06D-02 ExpMax= 1.36D+04 ExpMxC= 4.63D+02 IAcc=3 IRadAn=         5 AccDes= 0.00D+00
 Harris functional with IExCor=  402 and IRadAn=       5 diagonalized for initial guess.
 HarFok:  IExCor=  402 AccDes= 0.00D+00 IRadAn=         5 IDoV= 1 UseB2=F ITyADJ=14
 ICtDFT=  3500011 ScaDFX=  1.000000  1.000000  1.000000  1.000000
 FoFCou: FMM=F IPFlag=           0 FMFlag=      100000 FMFlg1=           0
         NFxFlg=           0 DoJE=T BraDBF=F KetDBF=T FulRan=T
         wScrn=  0.000000 ICntrl=       500 IOpCl=  0 I1Cent=   200000004 NGrid=           0
         NMat0=    1 NMatS0=      1 NMatT0=    0 NMatD0=    1 NMtDS0=    0 NMtDT0=    0
 Symmetry not used in FoFCou.
 Harris En= -258.687225641969    
 JPrj=0 DoOrth=F DoCkMO=F.
 Leave Link  401 at Tue Jan 14 15:00:36 2025, MaxMem=   104857600 cpu:               2.2 elap:               2.3
 (Enter /sw/cluster/pub/apps//g16/l502.exe)
 Two-electron integral symmetry not used.
 Closed shell SCF:
 Using DIIS extrapolation, IDIIS=  1040.
 NGot=   104857600 LenX=   104673663 LenY=   104583222
 Requested convergence on RMS density matrix=1.00D-08 within 128 cycles.
 Requested convergence on MAX density matrix=1.00D-06.
 Requested convergence on             energy=1.00D-06.
 No special actions if energy rises.
 Fock matrices will be formed incrementally for  20 cycles.
 Integral accuracy reduced to 1.0D-05 until final iterations.

 Cycle   1  Pass 0  IDiag  1:
 FoFJK:  IHMeth= 1 ICntrl=       0 DoSepK=F KAlg= 0 I1Cent=           0 FoldK=F
 IRaf= 970000000 NMat=       1 IRICut=       1 DoRegI=T DoRafI=F ISym2E= 0 IDoP0=0 IntGTp=1.
 FoFCou: FMM=F IPFlag=           0 FMFlag=      100000 FMFlg1=           0
         NFxFlg=           0 DoJE=F BraDBF=F KetDBF=F FulRan=T
         wScrn=  0.000000 ICntrl=         0 IOpCl=  0 I1Cent=           0 NGrid=           0
         NMat0=    1 NMatS0=      1 NMatT0=    0 NMatD0=    1 NMtDS0=    0 NMtDT0=    0
 Symmetry not used in FoFCou.
 E= -258.114116571332    
 DIIS: error= 3.49D-02 at cycle   1 NSaved=   1.
 NSaved= 1 IEnMin= 1 EnMin= -258.114116571332     IErMin= 1 ErrMin= 3.49D-02
 ErrMax= 3.49D-02  0.00D+00 EMaxC= 1.00D-01 BMatC= 2.59D-01 BMatP= 2.59D-01
 IDIUse=3 WtCom= 6.51D-01 WtEn= 3.49D-01
 Coeff-Com:  0.100D+01
 Coeff-En:   0.100D+01
 Coeff:      0.100D+01
 Gap=     0.218 Goal=   None    Shift=    0.000
 GapD=    0.218 DampG=1.000 DampE=0.500 DampFc=0.5000 IDamp=-1.
 Damping current iteration by 5.00D-01
 RMSDP=8.59D-03 MaxDP=4.13D-01              OVMax= 2.89D-01

 Cycle   2  Pass 0  IDiag  1:
 RMSU=  4.27D-03    CP:  9.48D-01
 E= -258.231386751701     Delta-E=       -0.117270180369 Rises=F Damp=T
 DIIS: error= 1.03D-02 at cycle   2 NSaved=   2.
 NSaved= 2 IEnMin= 2 EnMin= -258.231386751701     IErMin= 2 ErrMin= 1.03D-02
 ErrMax= 1.03D-02  0.00D+00 EMaxC= 1.00D-01 BMatC= 2.00D-02 BMatP= 2.59D-01
 IDIUse=3 WtCom= 8.97D-01 WtEn= 1.03D-01
 Coeff-Com:  0.100D+00 0.900D+00
 Coeff-En:   0.226D+00 0.774D+00
 Coeff:      0.113D+00 0.887D+00
 Gap=     0.307 Goal=   None    Shift=    0.000
 RMSDP=3.45D-03 MaxDP=2.16D-01 DE=-1.17D-01 OVMax= 2.17D-01

 Cycle   3  Pass 0  IDiag  1:
 RMSU=  1.74D-03    CP:  9.33D-01  3.02D-01
 E= -258.412384192084     Delta-E=       -0.180997440383 Rises=F Damp=F
 DIIS: error= 1.15D-02 at cycle   3 NSaved=   3.
 NSaved= 3 IEnMin= 3 EnMin= -258.412384192084     IErMin= 2 ErrMin= 1.03D-02
 ErrMax= 1.15D-02  0.00D+00 EMaxC= 1.00D-01 BMatC= 2.03D-02 BMatP= 2.00D-02
 IDIUse=3 WtCom= 8.85D-01 WtEn= 1.15D-01
 Coeff-Com: -0.460D-02 0.502D+00 0.502D+00
 Coeff-En:   0.000D+00 0.000D+00 0.100D+01
 Coeff:     -0.407D-02 0.445D+00 0.560D+00
 Gap=     0.202 Goal=   None    Shift=    0.000
 RMSDP=6.72D-04 MaxDP=2.03D-02 DE=-1.81D-01 OVMax= 7.73D-02

 Cycle   4  Pass 0  IDiag  1:
 RMSU=  6.26D-04    CP:  9.31D-01  3.54D-01  9.48D-01
 E= -258.428351107375     Delta-E=       -0.015966915292 Rises=F Damp=F
 DIIS: error= 6.64D-03 at cycle   4 NSaved=   4.
 NSaved= 4 IEnMin= 4 EnMin= -258.428351107375     IErMin= 4 ErrMin= 6.64D-03
 ErrMax= 6.64D-03  0.00D+00 EMaxC= 1.00D-01 BMatC= 6.19D-03 BMatP= 2.00D-02
 IDIUse=3 WtCom= 9.34D-01 WtEn= 6.64D-02
 Coeff-Com: -0.266D-01 0.149D+00 0.370D+00 0.508D+00
 Coeff-En:   0.000D+00 0.000D+00 0.260D+00 0.740D+00
 Coeff:     -0.249D-01 0.139D+00 0.362D+00 0.523D+00
 Gap=     0.206 Goal=   None    Shift=    0.000
 RMSDP=2.83D-04 MaxDP=7.77D-03 DE=-1.60D-02 OVMax= 3.53D-02

 Cycle   5  Pass 0  IDiag  1:
 RMSU=  1.54D-04    CP:  9.30D-01  3.41D-01  9.78D-01  6.41D-01
 E= -258.434821598445     Delta-E=       -0.006470491070 Rises=F Damp=F
 DIIS: error= 1.45D-03 at cycle   5 NSaved=   5.
 NSaved= 5 IEnMin= 5 EnMin= -258.434821598445     IErMin= 5 ErrMin= 1.45D-03
 ErrMax= 1.45D-03  0.00D+00 EMaxC= 1.00D-01 BMatC= 3.02D-04 BMatP= 6.19D-03
 IDIUse=3 WtCom= 9.86D-01 WtEn= 1.45D-02
 Coeff-Com: -0.135D-01 0.320D-01 0.131D+00 0.270D+00 0.581D+00
 Coeff-En:   0.000D+00 0.000D+00 0.000D+00 0.000D+00 0.100D+01
 Coeff:     -0.133D-01 0.316D-01 0.129D+00 0.266D+00 0.587D+00
 Gap=     0.205 Goal=   None    Shift=    0.000
 RMSDP=7.13D-05 MaxDP=1.81D-03 DE=-6.47D-03 OVMax= 7.45D-03

 Cycle   6  Pass 0  IDiag  1:
 RMSU=  4.15D-05    CP:  9.30D-01  3.43D-01  9.90D-01  6.92D-01  7.24D-01
 E= -258.435149533522     Delta-E=       -0.000327935077 Rises=F Damp=F
 DIIS: error= 2.22D-04 at cycle   6 NSaved=   6.
 NSaved= 6 IEnMin= 6 EnMin= -258.435149533522     IErMin= 6 ErrMin= 2.22D-04
 ErrMax= 2.22D-04  0.00D+00 EMaxC= 1.00D-01 BMatC= 1.77D-05 BMatP= 3.02D-04
 IDIUse=3 WtCom= 9.98D-01 WtEn= 2.22D-03
 Coeff-Com: -0.411D-02 0.258D-02 0.282D-01 0.769D-01 0.274D+00 0.622D+00
 Coeff-En:   0.000D+00 0.000D+00 0.000D+00 0.000D+00 0.000D+00 0.100D+01
 Coeff:     -0.410D-02 0.258D-02 0.282D-01 0.768D-01 0.274D+00 0.623D+00
 Gap=     0.205 Goal=   None    Shift=    0.000
 RMSDP=1.78D-05 MaxDP=4.54D-04 DE=-3.28D-04 OVMax= 1.20D-03

 Cycle   7  Pass 0  IDiag  1:
 RMSU=  1.41D-05    CP:  9.29D-01  3.42D-01  9.91D-01  6.85D-01  7.74D-01
                    CP:  8.92D-01
 E= -258.435168154762     Delta-E=       -0.000018621240 Rises=F Damp=F
 DIIS: error= 5.95D-05 at cycle   7 NSaved=   7.
 NSaved= 7 IEnMin= 7 EnMin= -258.435168154762     IErMin= 7 ErrMin= 5.95D-05
 ErrMax= 5.95D-05  0.00D+00 EMaxC= 1.00D-01 BMatC= 4.80D-07 BMatP= 1.77D-05
 IDIUse=1 WtCom= 1.00D+00 WtEn= 0.00D+00
 Coeff-Com: -0.731D-03-0.388D-03 0.390D-02 0.141D-01 0.668D-01 0.217D+00
 Coeff-Com:  0.699D+00
 Coeff:     -0.731D-03-0.388D-03 0.390D-02 0.141D-01 0.668D-01 0.217D+00
 Coeff:      0.699D+00
 Gap=     0.205 Goal=   None    Shift=    0.000
 RMSDP=4.12D-06 MaxDP=8.55D-05 DE=-1.86D-05 OVMax= 2.93D-04

 Initial convergence to 1.0D-05 achieved.  Increase integral accuracy.
 Cycle   8  Pass 1  IDiag  1:
 E= -258.435153723856     Delta-E=        0.000014430906 Rises=F Damp=F
 DIIS: error= 9.52D-05 at cycle   1 NSaved=   1.
 NSaved= 1 IEnMin= 1 EnMin= -258.435153723856     IErMin= 1 ErrMin= 9.52D-05
 ErrMax= 9.52D-05  0.00D+00 EMaxC= 1.00D-01 BMatC= 8.17D-07 BMatP= 8.17D-07
 IDIUse=1 WtCom= 1.00D+00 WtEn= 0.00D+00
 Coeff-Com:  0.100D+01
 Coeff:      0.100D+01
 Gap=     0.205 Goal=   None    Shift=    0.000
 RMSDP=4.12D-06 MaxDP=8.55D-05 DE= 1.44D-05 OVMax= 2.35D-04

 Cycle   9  Pass 1  IDiag  1:
 RMSU=  5.68D-05    CP:  1.00D+00
 E= -258.435153829516     Delta-E=       -0.000000105660 Rises=F Damp=F
 DIIS: error= 4.62D-05 at cycle   2 NSaved=   2.
 NSaved= 2 IEnMin= 2 EnMin= -258.435153829516     IErMin= 2 ErrMin= 4.62D-05
 ErrMax= 4.62D-05  0.00D+00 EMaxC= 1.00D-01 BMatC= 3.25D-07 BMatP= 8.17D-07
 IDIUse=1 WtCom= 1.00D+00 WtEn= 0.00D+00
 Coeff-Com:  0.343D+00 0.657D+00
 Coeff:      0.343D+00 0.657D+00
 Gap=     0.205 Goal=   None    Shift=    0.000
 RMSDP=2.61D-06 MaxDP=6.35D-05 DE=-1.06D-07 OVMax= 2.41D-04

 Cycle  10  Pass 1  IDiag  1:
 RMSU=  2.55D-06    CP:  1.00D+00  1.01D+00
 E= -258.435154022126     Delta-E=       -0.000000192610 Rises=F Damp=F
 DIIS: error= 3.00D-05 at cycle   3 NSaved=   3.
 NSaved= 3 IEnMin= 3 EnMin= -258.435154022126     IErMin= 3 ErrMin= 3.00D-05
 ErrMax= 3.00D-05  0.00D+00 EMaxC= 1.00D-01 BMatC= 1.35D-07 BMatP= 3.25D-07
 IDIUse=1 WtCom= 1.00D+00 WtEn= 0.00D+00
 Coeff-Com: -0.259D-03 0.392D+00 0.609D+00
 Coeff:     -0.259D-03 0.392D+00 0.609D+00
 Gap=     0.205 Goal=   None    Shift=    0.000
 RMSDP=1.09D-06 MaxDP=2.78D-05 DE=-1.93D-07 OVMax= 9.87D-05

 Cycle  11  Pass 1  IDiag  1:
 RMSU=  4.34D-07    CP:  1.00D+00  1.02D+00  6.55D-01
 E= -258.435154153818     Delta-E=       -0.000000131692 Rises=F Damp=F
 DIIS: error= 1.88D-06 at cycle   4 NSaved=   4.
 NSaved= 4 IEnMin= 4 EnMin= -258.435154153818     IErMin= 4 ErrMin= 1.88D-06
 ErrMax= 1.88D-06  0.00D+00 EMaxC= 1.00D-01 BMatC= 8.88D-10 BMatP= 1.35D-07
 IDIUse=1 WtCom= 1.00D+00 WtEn= 0.00D+00
 Coeff-Com: -0.178D-02 0.207D+00 0.327D+00 0.468D+00
 Coeff:     -0.178D-02 0.207D+00 0.327D+00 0.468D+00
 Gap=     0.205 Goal=   None    Shift=    0.000
 RMSDP=1.24D-07 MaxDP=3.37D-06 DE=-1.32D-07 OVMax= 1.17D-05

 Cycle  12  Pass 1  IDiag  1:
 RMSU=  1.16D-07    CP:  1.00D+00  1.02D+00  6.47D-01  9.15D-01
 E= -258.435154154779     Delta-E=       -0.000000000961 Rises=F Damp=F
 DIIS: error= 6.30D-07 at cycle   5 NSaved=   5.
 NSaved= 5 IEnMin= 5 EnMin= -258.435154154779     IErMin= 5 ErrMin= 6.30D-07
 ErrMax= 6.30D-07  0.00D+00 EMaxC= 1.00D-01 BMatC= 4.92D-11 BMatP= 8.88D-10
 IDIUse=1 WtCom= 1.00D+00 WtEn= 0.00D+00
 Coeff-Com: -0.105D-02 0.108D+00 0.171D+00 0.277D+00 0.444D+00
 Coeff:     -0.105D-02 0.108D+00 0.171D+00 0.277D+00 0.444D+00
 Gap=     0.205 Goal=   None    Shift=    0.000
 RMSDP=2.81D-08 MaxDP=6.75D-07 DE=-9.61D-10 OVMax= 3.46D-06

 Cycle  13  Pass 1  IDiag  1:
 RMSU=  2.15D-08    CP:  1.00D+00  1.02D+00  6.48D-01  9.40D-01  8.97D-01
 E= -258.435154154830     Delta-E=       -0.000000000051 Rises=F Damp=F
 DIIS: error= 1.71D-07 at cycle   6 NSaved=   6.
 NSaved= 6 IEnMin= 6 EnMin= -258.435154154830     IErMin= 6 ErrMin= 1.71D-07
 ErrMax= 1.71D-07  0.00D+00 EMaxC= 1.00D-01 BMatC= 3.93D-12 BMatP= 4.92D-11
 IDIUse=1 WtCom= 1.00D+00 WtEn= 0.00D+00
 Coeff-Com: -0.339D-03 0.328D-01 0.521D-01 0.945D-01 0.251D+00 0.570D+00
 Coeff:     -0.339D-03 0.328D-01 0.521D-01 0.945D-01 0.251D+00 0.570D+00
 Gap=     0.205 Goal=   None    Shift=    0.000
 RMSDP=1.09D-08 MaxDP=3.25D-07 DE=-5.06D-11 OVMax= 9.17D-07

 Cycle  14  Pass 1  IDiag  1:
 RMSU=  6.98D-09    CP:  1.00D+00  1.02D+00  6.49D-01  9.50D-01  9.30D-01
                    CP:  7.98D-01
 E= -258.435154154835     Delta-E=       -0.000000000005 Rises=F Damp=F
 DIIS: error= 3.72D-08 at cycle   7 NSaved=   7.
 NSaved= 7 IEnMin= 7 EnMin= -258.435154154835     IErMin= 7 ErrMin= 3.72D-08
 ErrMax= 3.72D-08  0.00D+00 EMaxC= 1.00D-01 BMatC= 2.26D-13 BMatP= 3.93D-12
 IDIUse=1 WtCom= 1.00D+00 WtEn= 0.00D+00
 Coeff-Com: -0.316D-04 0.225D-02 0.378D-02 0.923D-02 0.519D-01 0.247D+00
 Coeff-Com:  0.686D+00
 Coeff:     -0.316D-04 0.225D-02 0.378D-02 0.923D-02 0.519D-01 0.247D+00
 Coeff:      0.686D+00
 Gap=     0.205 Goal=   None    Shift=    0.000
 RMSDP=4.27D-09 MaxDP=1.21D-07 DE=-5.00D-12 OVMax= 1.47D-07

 SCF Done:  E(RB3LYP) =  -258.435154155     A.U. after   14 cycles
            NFock= 14  Conv=0.43D-08     -V/T= 2.0055
 KE= 2.570132116018D+02 PE=-1.118497085702D+03 EE= 3.472082747865D+02
 Leave Link  502 at Tue Jan 14 15:02:12 2025, MaxMem=   104857600 cpu:              95.1 elap:              95.3
 (Enter /sw/cluster/pub/apps//g16/l601.exe)
 Copying SCF densities to generalized density rwf, IOpCl= 0 IROHF=0.

 **********************************************************************

            Population analysis using the SCF density.

 **********************************************************************

 Alpha  occ. eigenvalues --  -10.02558 -10.02533 -10.02474 -10.00839 -10.00838
 Alpha  occ. eigenvalues --   -9.98828  -6.46886  -0.69481  -0.58871  -0.58219
 Alpha  occ. eigenvalues --   -0.44409  -0.44251  -0.36907  -0.30720  -0.28906
 Alpha  occ. eigenvalues --   -0.28341  -0.26625  -0.22319  -0.21549  -0.18103
 Alpha  occ. eigenvalues --   -0.12351  -0.10944  -0.10319  -0.09167  -0.06367
 Alpha virt. eigenvalues --    0.14120   0.14729   0.17096   0.19751   0.21073
 Alpha virt. eigenvalues --    0.22351   0.23908   0.24600   0.24732   0.26397
 Alpha virt. eigenvalues --    0.29053   0.29646   0.30990   0.32774   0.34132
 Alpha virt. eigenvalues --    0.35208   0.35390   0.36888   0.38354   0.38986
 Alpha virt. eigenvalues --    0.39714   0.40325   0.42563   0.44162   0.46330
 Alpha virt. eigenvalues --    0.46570   0.48978   0.49367   0.50155   0.51159
 Alpha virt. eigenvalues --    0.51376   0.52578   0.53029   0.54709   0.55896
 Alpha virt. eigenvalues --    0.56254   0.58914   0.59539   0.61038   0.61048
 Alpha virt. eigenvalues --    0.61518   0.63624   0.63936   0.65327   0.66281
 Alpha virt. eigenvalues --    0.68956   0.72316   0.75673   0.76597   0.78369
 Alpha virt. eigenvalues --    0.79562   0.80093   0.80885   0.85594   0.87176
 Alpha virt. eigenvalues --    0.89247   0.89418   0.90177   0.94344   0.95445
 Alpha virt. eigenvalues --    0.95831   0.96541   0.97900   1.01846   1.02135
 Alpha virt. eigenvalues --    1.03664   1.05496   1.07538   1.09233   1.14362
 Alpha virt. eigenvalues --    1.14854   1.19647   1.21384   1.22003   1.23818
 Alpha virt. eigenvalues --    1.25623   1.30632   1.32117   1.34408   1.36029
 Alpha virt. eigenvalues --    1.37686   1.38024   1.38817   1.41110   1.41334
 Alpha virt. eigenvalues --    1.44457   1.45927   1.54558   1.55001   1.56645
 Alpha virt. eigenvalues --    1.59049   1.60547   1.63270   1.64333   1.67409
 Alpha virt. eigenvalues --    1.67816   1.71069   1.71802   1.75532   1.78962
 Alpha virt. eigenvalues --    1.80777   1.82343   1.83219   1.84450   1.84673
 Alpha virt. eigenvalues --    1.86783   1.87521   1.92002   1.95525   1.96974
 Alpha virt. eigenvalues --    1.98966   2.00175   2.03990   2.04236   2.07378
 Alpha virt. eigenvalues --    2.10097   2.12438   2.17128   2.17511   2.19370
 Alpha virt. eigenvalues --    2.19733   2.24021   2.27142   2.29091   2.30993
 Alpha virt. eigenvalues --    2.31460   2.34296   2.37160   2.40705   2.41133
 Alpha virt. eigenvalues --    2.44527   2.50395   2.51690   2.55899   2.59402
 Alpha virt. eigenvalues --    2.60911   2.64033   2.64597   2.68350   2.71542
 Alpha virt. eigenvalues --    2.74191   2.74707   2.77016   2.77989   2.79464
 Alpha virt. eigenvalues --    2.81422   2.81837   2.84331   2.85674   2.89213
 Alpha virt. eigenvalues --    2.90179   2.90438   2.92211   2.92989   2.94440
 Alpha virt. eigenvalues --    2.97740   2.97862   2.99286   2.99594   3.02798
 Alpha virt. eigenvalues --    3.03773   3.05552   3.09724   3.10253   3.13406
 Alpha virt. eigenvalues --    3.16672   3.18935   3.19353   3.23707   3.26570
 Alpha virt. eigenvalues --    3.26592   3.29526   3.30491   3.30878   3.32394
 Alpha virt. eigenvalues --    3.34557   3.36416   3.37973   3.41288   3.41592
 Alpha virt. eigenvalues --    3.42135   3.43084   3.44201   3.48004   3.48924
 Alpha virt. eigenvalues --    3.54371   3.54994   3.56800   3.58641   3.61397
 Alpha virt. eigenvalues --    3.63772   3.64204   3.65501   3.68472   3.69337
 Alpha virt. eigenvalues --    3.74034   3.74929   3.76437   3.84125   3.84147
 Alpha virt. eigenvalues --    3.90342   3.99138   4.02741   4.02938   4.13825
 Alpha virt. eigenvalues --    4.17583   4.21549   4.25320   4.25487   4.29359
 Alpha virt. eigenvalues --    4.34674   4.36297   4.37152   4.42258   4.42738
 Alpha virt. eigenvalues --    4.43063   4.44615   4.51400   4.54966   4.78077
 Alpha virt. eigenvalues --    4.80411   4.81114   4.83802   4.87019   5.00801
 Alpha virt. eigenvalues --    5.05879   5.09427   5.32127   5.34077   5.41699
 Alpha virt. eigenvalues --    5.49962   5.55632   5.73956  15.13180  22.19023
 Alpha virt. eigenvalues --   22.71140  22.71966  22.81323  22.90293  23.26150
          Condensed to atoms (all electrons):
               1          2          3          4          5          6
     1  C    4.989404   0.469080  -0.030469  -0.059305  -0.030469   0.469080
     2  C    0.469080   4.999419   0.468822  -0.009201  -0.071300  -0.016601
     3  C   -0.030469   0.468822   5.047109   0.502221  -0.076159  -0.071300
     4  C   -0.059305  -0.009201   0.502221   4.868747   0.502221  -0.009201
     5  C   -0.030469  -0.071300  -0.076159   0.502221   5.047109   0.468822
     6  C    0.469080  -0.016601  -0.071300  -0.009201   0.468822   4.999419
     7  H    0.430539  -0.069725   0.013695  -0.006139   0.013695  -0.069725
     8  H   -0.078381   0.425248  -0.067909   0.013267  -0.003344   0.014324
     9  H    0.008653  -0.098512   0.404716  -0.024240   0.015190  -0.000140
    10  H    0.008653  -0.000140   0.015190  -0.024240   0.404716  -0.098512
    11  H   -0.078381   0.014324  -0.003344   0.013267  -0.067909   0.425248
    12  B    0.005290   0.004758  -0.037673   0.309840  -0.037673   0.004758
    13  H    0.000157   0.001293   0.001432  -0.063954   0.004604  -0.000715
    14  H    0.000157  -0.000715   0.004604  -0.063954   0.001432   0.001293
    15  H   -0.000424  -0.000147  -0.014807  -0.022001  -0.014807  -0.000147
               7          8          9         10         11         12
     1  C    0.430539  -0.078381   0.008653   0.008653  -0.078381   0.005290
     2  C   -0.069725   0.425248  -0.098512  -0.000140   0.014324   0.004758
     3  C    0.013695  -0.067909   0.404716   0.015190  -0.003344  -0.037673
     4  C   -0.006139   0.013267  -0.024240  -0.024240   0.013267   0.309840
     5  C    0.013695  -0.003344   0.015190   0.404716  -0.067909  -0.037673
     6  C   -0.069725   0.014324  -0.000140  -0.098512   0.425248   0.004758
     7  H    0.666092  -0.011918  -0.000511  -0.000511  -0.011918   0.000090
     8  H   -0.011918   0.676739  -0.009854   0.000223  -0.000489  -0.001117
     9  H   -0.000511  -0.009854   0.634529  -0.000622   0.000223  -0.001618
    10  H   -0.000511   0.000223  -0.000622   0.634529  -0.009854  -0.001618
    11  H   -0.011918  -0.000489   0.000223  -0.009854   0.676739  -0.001117
    12  B    0.000090  -0.001117  -0.001618  -0.001618  -0.001117   3.773300
    13  H   -0.000000  -0.000083   0.008037   0.000018   0.000030   0.417977
    14  H   -0.000000   0.000030   0.000018   0.008037  -0.000083   0.417977
    15  H   -0.000004   0.000052  -0.000258  -0.000258   0.000052   0.426142
              13         14         15
     1  C    0.000157   0.000157  -0.000424
     2  C    0.001293  -0.000715  -0.000147
     3  C    0.001432   0.004604  -0.014807
     4  C   -0.063954  -0.063954  -0.022001
     5  C    0.004604   0.001432  -0.014807
     6  C   -0.000715   0.001293  -0.000147
     7  H   -0.000000  -0.000000  -0.000004
     8  H   -0.000083   0.000030   0.000052
     9  H    0.008037   0.000018  -0.000258
    10  H    0.000018   0.008037  -0.000258
    11  H    0.000030  -0.000083   0.000052
    12  B    0.417977   0.417977   0.426142
    13  H    0.860709  -0.039449  -0.047266
    14  H   -0.039449   0.860709  -0.047266
    15  H   -0.047266  -0.047266   0.841408
 Mulliken charges:
               1
     1  C   -0.103585
     2  C   -0.116603
     3  C   -0.156128
     4  C    0.072671
     5  C   -0.156128
     6  C   -0.116603
     7  H    0.046341
     8  H    0.043213
     9  H    0.064388
    10  H    0.064388
    11  H    0.043213
    12  B   -0.279317
    13  H   -0.142791
    14  H   -0.142791
    15  H   -0.120269
 Sum of Mulliken charges =  -1.00000
 Mulliken charges with hydrogens summed into heavy atoms:
               1
     1  C   -0.057243
     2  C   -0.073391
     3  C   -0.091740
     4  C    0.072671
     5  C   -0.091740
     6  C   -0.073391
    12  B   -0.685168
 Electronic spatial extent (au):  <R**2>=            769.2288
 Charge=             -1.0000 electrons
 Dipole moment (field-independent basis, Debye):
    X=             -8.4352    Y=             -0.0000    Z=              0.1408  Tot=              8.4364
 Quadrupole moment (field-independent basis, Debye-Ang):
   XX=            -79.5915   YY=            -49.5422   ZZ=            -53.1414
   XY=             -0.0000   XZ=              0.4158   YZ=              0.0000
 Traceless Quadrupole moment (field-independent basis, Debye-Ang):
   XX=            -18.8331   YY=             11.2162   ZZ=              7.6170
   XY=             -0.0000   XZ=              0.4158   YZ=              0.0000
 Octapole moment (field-independent basis, Debye-Ang**2):
  XXX=           -120.6903  YYY=             -0.0000  ZZZ=              2.0218  XYY=            -15.9161
  XXY=             -0.0000  XXZ=              1.1757  XZZ=            -13.5695  YZZ=             -0.0000
  YYZ=             -0.8149  XYZ=              0.0000
 Hexadecapole moment (field-independent basis, Debye-Ang**3):
 XXXX=          -1155.0407 YYYY=           -345.7642 ZZZZ=            -88.4783 XXXY=             -0.0000
 XXXZ=              6.8671 YYYX=              0.0000 YYYZ=              0.0000 ZZZX=              9.5676
 ZZZY=              0.0000 XXYY=           -225.0603 XXZZ=           -188.2719 YYZZ=            -79.4456
 XXYZ=              0.0000 YYXZ=             -1.4441 ZZXY=             -0.0000
 N-N= 2.558404451590D+02 E-N=-1.118497094856D+03  KE= 2.570132116018D+02
 No NMR shielding tensors so no spin-rotation constants.
 Leave Link  601 at Tue Jan 14 15:02:12 2025, MaxMem=   104857600 cpu:               0.1 elap:               0.1
 (Enter /sw/cluster/pub/apps//g16/l9999.exe)
 1\1\GINC-N02\SP\RB3LYP\def2TZVP\C6H8B1(1-)\UNKNOWN\14-Jan-2025\0\\#P B
 3LYP/def2tzvp nosymm Density=Current\\Single-Point\\-1,1\C,0,-1.89137,
 0.,0.008888\C,0,-1.178556,1.196707,0.010046\C,0,0.213762,1.186154,0.01
 0046\C,0,0.971866,0.,0.004252\C,0,0.213762,-1.186154,0.010046\C,0,-1.1
 78556,-1.196707,0.010046\H,0,-2.976484,0.,0.012741\H,0,-1.71331,2.1429
 07,0.015098\H,0,0.745723,2.133212,0.017815\H,0,0.745723,-2.133212,0.01
 7815\H,0,-1.71331,-2.142907,0.015098\B,0,2.592641,0.,-0.038454\H,0,3.0
 41081,1.009317,0.505481\H,0,3.041081,-1.009317,0.505481\H,0,2.960844,0
 .,-1.217213\\Version=ES64L-G16RevA.03\HF=-258.4351542\RMSD=4.269e-09\D
 ipole=-3.3186681,0.,0.055398\Quadrupole=-14.0019652,8.3389412,5.663024
 ,0.,0.3091346,0.\PG=CS [SG(C2H2B1),X(C4H6)]\\@


 ONE THORN OF EXPERIENCE IS WORTH A WHOLE WILDERNESS OF
 WARNING....  LOWELL - AMONG MY BOOKS
 Job cpu time:       0 days  0 hours  1 minutes 37.7 seconds.
 Elapsed time:       0 days  0 hours  1 minutes 37.9 seconds.
 File lengths (MBytes):  RWF=     43 Int=      0 D2E=      0 Chk=      5 Scr=      1
 Normal termination of Gaussian 16 at Tue Jan 14 15:02:12 2025.
