 Entering Gaussian System, Link 0=g16
 Initial command:
 /sw/cluster/pub/apps//g16/l1.exe "/data/mmaximo/27737/Gau-1914974.inp" -scrdir="/data/mmaximo/27737/"
 Entering Link 1 = /sw/cluster/pub/apps//g16/l1.exe PID=   1914975.
  
 Copyright (c) 1988,1990,1992,1993,1995,1998,2003,2009,2016,
            Gaussian, Inc.  All Rights Reserved.
  
 This is part of the Gaussian(R) 16 program.  It is based on
 the Gaussian(R) 09 system (copyright 2009, Gaussian, Inc.),
 the Gaussian(R) 03 system (copyright 2003, Gaussian, Inc.),
 the Gaussian(R) 98 system (copyright 1998, Gaussian, Inc.),
 the Gaussian(R) 94 system (copyright 1995, Gaussian, Inc.),
 the Gaussian 92(TM) system (copyright 1992, Gaussian, Inc.),
 the Gaussian 90(TM) system (copyright 1990, Gaussian, Inc.),
 the Gaussian 88(TM) system (copyright 1988, Gaussian, Inc.),
 the Gaussian 86(TM) system (copyright 1986, Carnegie Mellon
 University), and the Gaussian 82(TM) system (copyright 1983,
 Carnegie Mellon University). Gaussian is a federally registered
 trademark of Gaussian, Inc.
  
 This software contains proprietary and confidential information,
 including trade secrets, belonging to Gaussian, Inc.
  
 This software is provided under written license and may be
 used, copied, transmitted, or stored only in accord with that
 written license.
  
 The following legend is applicable only to US Government
 contracts under FAR:
  
                    RESTRICTED RIGHTS LEGEND
  
 Use, reproduction and disclosure by the US Government is
 subject to restrictions as set forth in subparagraphs (a)
 and (c) of the Commercial Computer Software - Restricted
 Rights clause in FAR 52.227-19.
  
 Gaussian, Inc.
 340 Quinnipiac St., Bldg. 40, Wallingford CT 06492
  
  
 ---------------------------------------------------------------
 Warning -- This program may not be used in any manner that
 competes with the business of Gaussian, Inc. or will provide
 assistance to any competitor of Gaussian, Inc.  The licensee
 of this program is prohibited from giving any competitor of
 Gaussian, Inc. access to this program.  By using this program,
 the user acknowledges that Gaussian, Inc. is engaged in the
 business of creating and licensing software in the field of
 computational chemistry and represents and warrants to the
 licensee that it is not a competitor of Gaussian, Inc. and that
 it will not use this program in any manner prohibited above.
 ---------------------------------------------------------------
  

 Cite this work as:
 Gaussian 16, Revision A.03,
 M. J. Frisch, G. W. Trucks, H. B. Schlegel, G. E. Scuseria, 
 M. A. Robb, J. R. Cheeseman, G. Scalmani, V. Barone, 
 G. A. Petersson, H. Nakatsuji, X. Li, M. Caricato, A. V. Marenich, 
 J. Bloino, B. G. Janesko, R. Gomperts, B. Mennucci, H. P. Hratchian, 
 J. V. Ortiz, A. F. Izmaylov, J. L. Sonnenberg, D. Williams-Young, 
 F. Ding, F. Lipparini, F. Egidi, J. Goings, B. Peng, A. Petrone, 
 T. Henderson, D. Ranasinghe, V. G. Zakrzewski, J. Gao, N. Rega, 
 G. Zheng, W. Liang, M. Hada, M. Ehara, K. Toyota, R. Fukuda, 
 J. Hasegawa, M. Ishida, T. Nakajima, Y. Honda, O. Kitao, H. Nakai, 
 T. Vreven, K. Throssell, J. A. Montgomery, Jr., J. E. Peralta, 
 F. Ogliaro, M. J. Bearpark, J. J. Heyd, E. N. Brothers, K. N. Kudin, 
 V. N. Staroverov, T. A. Keith, R. Kobayashi, J. Normand, 
 K. Raghavachari, A. P. Rendell, J. C. Burant, S. S. Iyengar, 
 J. Tomasi, M. Cossi, J. M. Millam, M. Klene, C. Adamo, R. Cammi, 
 J. W. Ochterski, R. L. Martin, K. Morokuma, O. Farkas, 
 J. B. Foresman, and D. J. Fox, Gaussian, Inc., Wallingford CT, 2016.
 
 ******************************************
 Gaussian 16:  ES64L-G16RevA.03 25-Dec-2016
                14-Jan-2025 
 ******************************************
 %chk=C6H4-CH3-2.chk
 ----------------------------------------
 #P B3LYP/def2tzvp nosymm Density=Current
 ----------------------------------------
 1/30=1,38=1,172=1/1;
 2/12=2,15=1,17=6,18=5,40=1/2;
 3/5=44,7=101,11=2,25=1,30=1,74=-5/1,2,3;
 4//1;
 5/5=2,38=5/2;
 6/7=2,8=2,9=2,10=2,22=-1,28=1/1;
 99/5=1,9=1/99;
 Leave Link    1 at Tue Jan 14 13:33:19 2025, MaxMem=           0 cpu:               0.0 elap:               0.0
 (Enter /sw/cluster/pub/apps//g16/l101.exe)
 ------------
 Single-Point
 ------------
 Symbolic Z-matrix:
 Charge =  0 Multiplicity = 1
 C                     1.41734   0.00248  -0.01091 
 C                     0.6939   -1.19184  -0.00621 
 C                    -0.6939   -1.19184   0.00621 
 C                    -1.41734   0.00248   0.01091 
 C                    -0.69548   1.19411   0.00616 
 C                     0.69548   1.19411  -0.00616 
 H                     1.22545  -2.1371   -0.01108 
 H                    -1.22545  -2.1371    0.01108 
 H                    -1.22662   2.13932   0.01086 
 H                     1.22662   2.13932  -0.01086 
 C                     2.92374  -0.00234   0.00616 
 C                    -2.92374  -0.00234  -0.00616 
 H                     3.32726  -0.78269  -0.64189 
 H                     3.32785   0.9547   -0.32586 
 H                     3.307    -0.18865   1.01377 
 H                    -3.32726  -0.78269   0.64189 
 H                    -3.32785   0.9547    0.32586 
 H                    -3.307    -0.18865  -1.01377 
 
 ITRead=  0  0  0  0  0  0  0  0  0  0  0  0  0  0  0  0  0  0
 MicOpt= -1 -1 -1 -1 -1 -1 -1 -1 -1 -1 -1 -1 -1 -1 -1 -1 -1 -1
 NAtoms=     18 NQM=       18 NQMF=       0 NMMI=      0 NMMIF=      0
                NMic=       0 NMicF=      0.
                    Isotopes and Nuclear Properties:
 (Nuclear quadrupole moments (NQMom) in fm**2, nuclear magnetic moments (NMagM)
  in nuclear magnetons)

  Atom         1           2           3           4           5           6           7           8           9          10
 IAtWgt=          12          12          12          12          12          12           1           1           1           1
 AtmWgt=  12.0000000  12.0000000  12.0000000  12.0000000  12.0000000  12.0000000   1.0078250   1.0078250   1.0078250   1.0078250
 NucSpn=           0           0           0           0           0           0           1           1           1           1
 AtZEff=  -0.0000000  -0.0000000  -0.0000000  -0.0000000  -0.0000000  -0.0000000  -0.0000000  -0.0000000  -0.0000000  -0.0000000
 NQMom=    0.0000000   0.0000000   0.0000000   0.0000000   0.0000000   0.0000000   0.0000000   0.0000000   0.0000000   0.0000000
 NMagM=    0.0000000   0.0000000   0.0000000   0.0000000   0.0000000   0.0000000   2.7928460   2.7928460   2.7928460   2.7928460
 AtZNuc=   6.0000000   6.0000000   6.0000000   6.0000000   6.0000000   6.0000000   1.0000000   1.0000000   1.0000000   1.0000000

  Atom        11          12          13          14          15          16          17          18
 IAtWgt=          12          12           1           1           1           1           1           1
 AtmWgt=  12.0000000  12.0000000   1.0078250   1.0078250   1.0078250   1.0078250   1.0078250   1.0078250
 NucSpn=           0           0           1           1           1           1           1           1
 AtZEff=  -0.0000000  -0.0000000  -0.0000000  -0.0000000  -0.0000000  -0.0000000  -0.0000000  -0.0000000
 NQMom=    0.0000000   0.0000000   0.0000000   0.0000000   0.0000000   0.0000000   0.0000000   0.0000000
 NMagM=    0.0000000   0.0000000   2.7928460   2.7928460   2.7928460   2.7928460   2.7928460   2.7928460
 AtZNuc=   6.0000000   6.0000000   1.0000000   1.0000000   1.0000000   1.0000000   1.0000000   1.0000000
 Leave Link  101 at Tue Jan 14 13:33:19 2025, MaxMem=   104857600 cpu:               0.0 elap:               0.0
 (Enter /sw/cluster/pub/apps//g16/l202.exe)
                          Input orientation:                          
 ---------------------------------------------------------------------
 Center     Atomic      Atomic             Coordinates (Angstroms)
 Number     Number       Type             X           Y           Z
 ---------------------------------------------------------------------
      1          6           0        1.417340    0.002481   -0.010913
      2          6           0        0.693898   -1.191842   -0.006209
      3          6           0       -0.693898   -1.191842    0.006209
      4          6           0       -1.417340    0.002481    0.010913
      5          6           0       -0.695480    1.194108    0.006161
      6          6           0        0.695480    1.194108   -0.006161
      7          1           0        1.225450   -2.137096   -0.011084
      8          1           0       -1.225450   -2.137096    0.011084
      9          1           0       -1.226619    2.139324    0.010860
     10          1           0        1.226619    2.139324   -0.010860
     11          6           0        2.923736   -0.002343    0.006161
     12          6           0       -2.923736   -0.002343   -0.006161
     13          1           0        3.327264   -0.782694   -0.641891
     14          1           0        3.327848    0.954699   -0.325860
     15          1           0        3.306998   -0.188649    1.013771
     16          1           0       -3.327264   -0.782694    0.641891
     17          1           0       -3.327848    0.954699    0.325860
     18          1           0       -3.306998   -0.188649   -1.013771
 ---------------------------------------------------------------------
                    Distance matrix (angstroms):
                    1          2          3          4          5
     1  C    0.000000
     2  C    1.396352   0.000000
     3  C    2.425701   1.387851   0.000000
     4  C    2.834764   2.425701   1.396352   0.000000
     5  C    2.425752   2.761029   2.385950   1.393226   0.000000
     6  C    1.393226   2.385950   2.761029   2.425752   1.391014
     7  H    2.148164   1.084471   2.139556   3.400384   3.845411
     8  H    3.400384   2.139556   1.084471   2.148164   3.373101
     9  H    3.399573   3.845172   3.373497   2.145338   1.084235
    10  H    2.145338   3.373497   3.845172   3.399573   2.142005
    11  C    1.506500   2.527299   3.808173   4.341081   3.811852
    12  C    4.341081   3.808173   2.527299   1.506500   2.529184
    13  H    2.159269   2.739728   4.093553   4.853238   4.528817
    14  H    2.157766   3.412845   4.570815   4.851490   4.044098
    15  H    2.158081   2.979102   4.246027   4.833386   4.352829
    16  H    4.853238   4.093553   2.739728   2.159269   3.352340
    17  H    4.851490   4.570815   3.412845   2.157766   2.662497
    18  H    4.833386   4.246027   2.979102   2.158081   3.126068
                    6          7          8          9         10
     6  C    0.000000
     7  H    3.373101   0.000000
     8  H    3.845411   2.451001   0.000000
     9  H    2.142005   4.929594   4.276421   0.000000
    10  H    1.084235   4.276421   4.929594   2.453333   0.000000
    11  C    2.529184   2.727937   4.666148   4.670354   2.732625
    12  C    3.811852   4.666148   2.727937   2.732625   4.670354
    13  H    3.352340   2.578748   4.794579   5.449966   3.653643
    14  H    2.662497   3.752113   5.514096   4.718039   2.432638
    15  H    3.126068   3.029788   5.034373   5.194128   3.285925
    16  H    4.528817   4.794579   2.578748   3.653643   5.449966
    17  H    4.044098   5.514096   3.752113   2.432638   4.718039
    18  H    4.352829   5.034373   3.029788   3.285925   5.194128
                   11         12         13         14         15
    11  C    0.000000
    12  C    5.847485   0.000000
    13  H    1.091675   6.331516   0.000000
    14  H    1.090630   6.332491   1.765902   0.000000
    15  H    1.094018   6.316408   1.759123   1.761332   0.000000
    16  H    6.331516   1.091675   6.777230   6.945905   6.671178
    17  H    6.332491   1.090630   6.945905   6.687529   6.767692
    18  H    6.316408   1.094018   6.671178   6.767692   6.917793
                   16         17         18
    16  H    0.000000
    17  H    1.765902   0.000000
    18  H    1.759123   1.761332   0.000000
 Symmetry turned off by external request.
 Stoichiometry    C8H10
 Framework group  C2[X(C8H10)]
 Deg. of freedom    25
 Full point group                 C2      NOp   2
 Rotational constants (GHZ):           5.4335897           1.4341181           1.1507780
 Leave Link  202 at Tue Jan 14 13:33:19 2025, MaxMem=   104857600 cpu:               0.0 elap:               0.0
 (Enter /sw/cluster/pub/apps//g16/l301.exe)
 Standard basis: def2TZVP (5D, 7F)
 Ernie: Thresh=  0.10000D-02 Tol=  0.10000D-05 Strict=F.
   308 basis functions,   488 primitive gaussians,   348 cartesian basis functions
    29 alpha electrons       29 beta electrons
       nuclear repulsion energy       340.5902259766 Hartrees.
 IExCor=  402 DFT=T Ex+Corr=B3LYP ExCW=0 ScaHFX=  0.200000
 ScaDFX=  0.800000  0.720000  1.000000  0.810000 ScalE2=  1.000000  1.000000
 IRadAn=      5 IRanWt=     -1 IRanGd=            0 ICorTp=0 IEmpDi=  4
 NAtoms=   18 NActive=   18 NUniq=   18 SFac= 1.00D+00 NAtFMM=   60 NAOKFM=F Big=F
 Integral buffers will be    131072 words long.
 Raffenetti 2 integral format.
 Two-electron integral symmetry is turned off.
 Leave Link  301 at Tue Jan 14 13:33:19 2025, MaxMem=   104857600 cpu:               0.0 elap:               0.0
 (Enter /sw/cluster/pub/apps//g16/l302.exe)
 NPDir=0 NMtPBC=     1 NCelOv=     1 NCel=       1 NClECP=     1 NCelD=      1
         NCelK=      1 NCelE2=     1 NClLst=     1 CellRange=     0.0.
 One-electron integrals computed using PRISM.
   1 Symmetry operations used in ECPInt.
 ECPInt:  NShTT=    8256 NPrTT=   24516 LenC2=    8045 LenP2D=   19221.
 LDataN:  DoStor=T MaxTD1= 6 Len=  172
 NBasis=   308 RedAO= T EigKep=  7.19D-06  NBF=   308
 NBsUse=   308 1.00D-06 EigRej= -1.00D+00 NBFU=   308
 Precomputing XC quadrature grid using
 IXCGrd= 4 IRadAn=           5 IRanWt=          -1 IRanGd=           0 AccXCQ= 0.00D+00.
 Generated NRdTot=       0 NPtTot=           0 NUsed=           0 NTot=          32
 NSgBfM=   346   346   346   346   346 MxSgAt=    18 MxSgA2=    18.
 Leave Link  302 at Tue Jan 14 13:33:19 2025, MaxMem=   104857600 cpu:               0.2 elap:               0.2
 (Enter /sw/cluster/pub/apps//g16/l303.exe)
 DipDrv:  MaxL=1.
 Leave Link  303 at Tue Jan 14 13:33:19 2025, MaxMem=   104857600 cpu:               0.0 elap:               0.0
 (Enter /sw/cluster/pub/apps//g16/l401.exe)
 ExpMin= 9.52D-02 ExpMax= 1.36D+04 ExpMxC= 4.63D+02 IAcc=3 IRadAn=         5 AccDes= 0.00D+00
 Harris functional with IExCor=  402 and IRadAn=       5 diagonalized for initial guess.
 HarFok:  IExCor=  402 AccDes= 0.00D+00 IRadAn=         5 IDoV= 1 UseB2=F ITyADJ=14
 ICtDFT=  3500011 ScaDFX=  1.000000  1.000000  1.000000  1.000000
 FoFCou: FMM=F IPFlag=           0 FMFlag=      100000 FMFlg1=           0
         NFxFlg=           0 DoJE=T BraDBF=F KetDBF=T FulRan=T
         wScrn=  0.000000 ICntrl=       500 IOpCl=  0 I1Cent=   200000004 NGrid=           0
         NMat0=    1 NMatS0=      1 NMatT0=    0 NMatD0=    1 NMtDS0=    0 NMtDT0=    0
 Symmetry not used in FoFCou.
 Harris En= -311.079336957906    
 JPrj=0 DoOrth=F DoCkMO=F.
 Leave Link  401 at Tue Jan 14 13:33:22 2025, MaxMem=   104857600 cpu:               3.1 elap:               3.1
 (Enter /sw/cluster/pub/apps//g16/l502.exe)
 Two-electron integral symmetry not used.
 Closed shell SCF:
 Using DIIS extrapolation, IDIIS=  1040.
 NGot=   104857600 LenX=   104610834 LenY=   104489289
 Requested convergence on RMS density matrix=1.00D-08 within 128 cycles.
 Requested convergence on MAX density matrix=1.00D-06.
 Requested convergence on             energy=1.00D-06.
 No special actions if energy rises.
 Fock matrices will be formed incrementally for  20 cycles.
 Integral accuracy reduced to 1.0D-05 until final iterations.

 Cycle   1  Pass 0  IDiag  1:
 FoFJK:  IHMeth= 1 ICntrl=       0 DoSepK=F KAlg= 0 I1Cent=           0 FoldK=F
 IRaf= 940000000 NMat=       1 IRICut=       1 DoRegI=T DoRafI=F ISym2E= 0 IDoP0=0 IntGTp=1.
 FoFCou: FMM=F IPFlag=           0 FMFlag=      100000 FMFlg1=           0
         NFxFlg=           0 DoJE=F BraDBF=F KetDBF=F FulRan=T
         wScrn=  0.000000 ICntrl=         0 IOpCl=  0 I1Cent=           0 NGrid=           0
         NMat0=    1 NMatS0=      1 NMatT0=    0 NMatD0=    1 NMtDS0=    0 NMtDT0=    0
 Symmetry not used in FoFCou.
 E= -310.722544633487    
 DIIS: error= 3.08D-02 at cycle   1 NSaved=   1.
 NSaved= 1 IEnMin= 1 EnMin= -310.722544633487     IErMin= 1 ErrMin= 3.08D-02
 ErrMax= 3.08D-02  0.00D+00 EMaxC= 1.00D-01 BMatC= 2.70D-01 BMatP= 2.70D-01
 IDIUse=3 WtCom= 6.92D-01 WtEn= 3.08D-01
 Coeff-Com:  0.100D+01
 Coeff-En:   0.100D+01
 Coeff:      0.100D+01
 Gap=     0.233 Goal=   None    Shift=    0.000
 GapD=    0.233 DampG=1.000 DampE=0.500 DampFc=0.5000 IDamp=-1.
 Damping current iteration by 5.00D-01
 RMSDP=3.60D-03 MaxDP=7.68D-02              OVMax= 1.87D-01

 Cycle   2  Pass 0  IDiag  1:
 RMSU=  1.75D-03    CP:  9.50D-01
 E= -310.847079374906     Delta-E=       -0.124534741419 Rises=F Damp=T
 DIIS: error= 5.57D-03 at cycle   2 NSaved=   2.
 NSaved= 2 IEnMin= 2 EnMin= -310.847079374906     IErMin= 2 ErrMin= 5.57D-03
 ErrMax= 5.57D-03  0.00D+00 EMaxC= 1.00D-01 BMatC= 1.13D-02 BMatP= 2.70D-01
 IDIUse=3 WtCom= 9.44D-01 WtEn= 5.57D-02
 Coeff-Com:  0.268D-01 0.973D+00
 Coeff-En:   0.937D-01 0.906D+00
 Coeff:      0.305D-01 0.969D+00
 Gap=     0.293 Goal=   None    Shift=    0.000
 RMSDP=1.13D-03 MaxDP=2.65D-02 DE=-1.25D-01 OVMax= 1.10D-01

 Cycle   3  Pass 0  IDiag  1:
 RMSU=  9.25D-04    CP:  9.42D-01  6.30D-01
 E= -310.996630306354     Delta-E=       -0.149550931448 Rises=F Damp=F
 DIIS: error= 6.07D-03 at cycle   3 NSaved=   3.
 NSaved= 3 IEnMin= 3 EnMin= -310.996630306354     IErMin= 2 ErrMin= 5.57D-03
 ErrMax= 6.07D-03  0.00D+00 EMaxC= 1.00D-01 BMatC= 3.14D-03 BMatP= 1.13D-02
 IDIUse=3 WtCom= 9.39D-01 WtEn= 6.07D-02
 Coeff-Com: -0.364D-01 0.295D+00 0.741D+00
 Coeff-En:   0.000D+00 0.000D+00 0.100D+01
 Coeff:     -0.342D-01 0.278D+00 0.757D+00
 Gap=     0.222 Goal=   None    Shift=    0.000
 RMSDP=2.55D-04 MaxDP=4.95D-03 DE=-1.50D-01 OVMax= 1.63D-02

 Cycle   4  Pass 0  IDiag  1:
 RMSU=  1.84D-04    CP:  9.39D-01  7.16D-01  9.03D-01
 E= -310.999180439521     Delta-E=       -0.002550133167 Rises=F Damp=F
 DIIS: error= 2.67D-03 at cycle   4 NSaved=   4.
 NSaved= 4 IEnMin= 4 EnMin= -310.999180439521     IErMin= 4 ErrMin= 2.67D-03
 ErrMax= 2.67D-03  0.00D+00 EMaxC= 1.00D-01 BMatC= 9.18D-04 BMatP= 3.14D-03
 IDIUse=3 WtCom= 9.73D-01 WtEn= 2.67D-02
 Coeff-Com: -0.214D-01 0.861D-01 0.397D+00 0.538D+00
 Coeff-En:   0.000D+00 0.000D+00 0.152D+00 0.848D+00
 Coeff:     -0.208D-01 0.838D-01 0.390D+00 0.547D+00
 Gap=     0.225 Goal=   None    Shift=    0.000
 RMSDP=7.70D-05 MaxDP=2.58D-03 DE=-2.55D-03 OVMax= 7.68D-03

 Cycle   5  Pass 0  IDiag  1:
 RMSU=  4.93D-05    CP:  9.39D-01  7.04D-01  9.42D-01  7.71D-01
 E= -311.000005791017     Delta-E=       -0.000825351496 Rises=F Damp=F
 DIIS: error= 4.39D-04 at cycle   5 NSaved=   5.
 NSaved= 5 IEnMin= 5 EnMin= -311.000005791017     IErMin= 5 ErrMin= 4.39D-04
 ErrMax= 4.39D-04  0.00D+00 EMaxC= 1.00D-01 BMatC= 3.28D-05 BMatP= 9.18D-04
 IDIUse=3 WtCom= 9.96D-01 WtEn= 4.39D-03
 Coeff-Com: -0.523D-02 0.988D-02 0.965D-01 0.223D+00 0.676D+00
 Coeff-En:   0.000D+00 0.000D+00 0.000D+00 0.000D+00 0.100D+01
 Coeff:     -0.520D-02 0.984D-02 0.960D-01 0.222D+00 0.678D+00
 Gap=     0.225 Goal=   None    Shift=    0.000
 RMSDP=2.32D-05 MaxDP=6.10D-04 DE=-8.25D-04 OVMax= 1.60D-03

 Cycle   6  Pass 0  IDiag  1:
 RMSU=  1.90D-05    CP:  9.39D-01  7.06D-01  9.53D-01  8.08D-01  9.64D-01
 E= -311.000032627465     Delta-E=       -0.000026836448 Rises=F Damp=F
 DIIS: error= 1.15D-04 at cycle   6 NSaved=   6.
 NSaved= 6 IEnMin= 6 EnMin= -311.000032627465     IErMin= 6 ErrMin= 1.15D-04
 ErrMax= 1.15D-04  0.00D+00 EMaxC= 1.00D-01 BMatC= 1.90D-06 BMatP= 3.28D-05
 IDIUse=3 WtCom= 9.99D-01 WtEn= 1.15D-03
 Coeff-Com: -0.185D-02 0.208D-02 0.366D-01 0.952D-01 0.336D+00 0.532D+00
 Coeff-En:   0.000D+00 0.000D+00 0.000D+00 0.000D+00 0.000D+00 0.100D+01
 Coeff:     -0.185D-02 0.207D-02 0.366D-01 0.951D-01 0.336D+00 0.532D+00
 Gap=     0.225 Goal=   None    Shift=    0.000
 RMSDP=5.42D-06 MaxDP=1.09D-04 DE=-2.68D-05 OVMax= 3.84D-04

 Initial convergence to 1.0D-05 achieved.  Increase integral accuracy.
 Cycle   7  Pass 1  IDiag  1:
 E= -311.000028273854     Delta-E=        0.000004353611 Rises=F Damp=F
 DIIS: error= 2.19D-04 at cycle   1 NSaved=   1.
 NSaved= 1 IEnMin= 1 EnMin= -311.000028273854     IErMin= 1 ErrMin= 2.19D-04
 ErrMax= 2.19D-04  0.00D+00 EMaxC= 1.00D-01 BMatC= 1.99D-06 BMatP= 1.99D-06
 IDIUse=3 WtCom= 9.98D-01 WtEn= 2.19D-03
 Coeff-Com:  0.100D+01
 Coeff-En:   0.100D+01
 Coeff:      0.100D+01
 Gap=     0.225 Goal=   None    Shift=    0.000
 RMSDP=5.42D-06 MaxDP=1.09D-04 DE= 4.35D-06 OVMax= 2.46D-04

 Cycle   8  Pass 1  IDiag  1:
 RMSU=  1.03D-04    CP:  1.00D+00
 E= -311.000028727821     Delta-E=       -0.000000453966 Rises=F Damp=F
 DIIS: error= 4.01D-05 at cycle   2 NSaved=   2.
 NSaved= 2 IEnMin= 2 EnMin= -311.000028727821     IErMin= 2 ErrMin= 4.01D-05
 ErrMax= 4.01D-05  0.00D+00 EMaxC= 1.00D-01 BMatC= 3.20D-07 BMatP= 1.99D-06
 IDIUse=1 WtCom= 1.00D+00 WtEn= 0.00D+00
 Coeff-Com:  0.192D+00 0.808D+00
 Coeff:      0.192D+00 0.808D+00
 Gap=     0.225 Goal=   None    Shift=    0.000
 RMSDP=3.20D-06 MaxDP=8.99D-05 DE=-4.54D-07 OVMax= 3.41D-04

 Cycle   9  Pass 1  IDiag  1:
 RMSU=  2.88D-06    CP:  1.00D+00  1.01D+00
 E= -311.000028668237     Delta-E=        0.000000059584 Rises=F Damp=F
 DIIS: error= 4.27D-05 at cycle   3 NSaved=   3.
 NSaved= 3 IEnMin= 2 EnMin= -311.000028727821     IErMin= 2 ErrMin= 4.01D-05
 ErrMax= 4.27D-05  0.00D+00 EMaxC= 1.00D-01 BMatC= 3.76D-07 BMatP= 3.20D-07
 IDIUse=1 WtCom= 1.00D+00 WtEn= 0.00D+00
 Coeff-Com:  0.683D-03 0.520D+00 0.479D+00
 Coeff:      0.683D-03 0.520D+00 0.479D+00
 Gap=     0.225 Goal=   None    Shift=    0.000
 RMSDP=1.61D-06 MaxDP=5.22D-05 DE= 5.96D-08 OVMax= 2.14D-04

 Cycle  10  Pass 1  IDiag  1:
 RMSU=  6.23D-07    CP:  1.00D+00  1.02D+00  5.09D-01
 E= -311.000029041292     Delta-E=       -0.000000373056 Rises=F Damp=F
 DIIS: error= 8.91D-06 at cycle   4 NSaved=   4.
 NSaved= 4 IEnMin= 4 EnMin= -311.000029041292     IErMin= 4 ErrMin= 8.91D-06
 ErrMax= 8.91D-06  0.00D+00 EMaxC= 1.00D-01 BMatC= 6.81D-09 BMatP= 3.20D-07
 IDIUse=1 WtCom= 1.00D+00 WtEn= 0.00D+00
 Coeff-Com: -0.162D-02 0.320D+00 0.303D+00 0.379D+00
 Coeff:     -0.162D-02 0.320D+00 0.303D+00 0.379D+00
 Gap=     0.225 Goal=   None    Shift=    0.000
 RMSDP=2.42D-07 MaxDP=7.42D-06 DE=-3.73D-07 OVMax= 3.85D-05

 Cycle  11  Pass 1  IDiag  1:
 RMSU=  1.89D-07    CP:  1.00D+00  1.02D+00  5.22D-01  7.69D-01
 E= -311.000029048921     Delta-E=       -0.000000007628 Rises=F Damp=F
 DIIS: error= 7.44D-07 at cycle   5 NSaved=   5.
 NSaved= 5 IEnMin= 5 EnMin= -311.000029048921     IErMin= 5 ErrMin= 7.44D-07
 ErrMax= 7.44D-07  0.00D+00 EMaxC= 1.00D-01 BMatC= 8.81D-11 BMatP= 6.81D-09
 IDIUse=1 WtCom= 1.00D+00 WtEn= 0.00D+00
 Coeff-Com: -0.806D-03 0.132D+00 0.126D+00 0.183D+00 0.560D+00
 Coeff:     -0.806D-03 0.132D+00 0.126D+00 0.183D+00 0.560D+00
 Gap=     0.225 Goal=   None    Shift=    0.000
 RMSDP=3.83D-08 MaxDP=7.00D-07 DE=-7.63D-09 OVMax= 3.70D-06

 Cycle  12  Pass 1  IDiag  1:
 RMSU=  3.18D-08    CP:  1.00D+00  1.02D+00  5.19D-01  7.87D-01  9.84D-01
 E= -311.000029049001     Delta-E=       -0.000000000080 Rises=F Damp=F
 DIIS: error= 2.57D-07 at cycle   6 NSaved=   6.
 NSaved= 6 IEnMin= 6 EnMin= -311.000029049001     IErMin= 6 ErrMin= 2.57D-07
 ErrMax= 2.57D-07  0.00D+00 EMaxC= 1.00D-01 BMatC= 6.79D-12 BMatP= 8.81D-11
 IDIUse=1 WtCom= 1.00D+00 WtEn= 0.00D+00
 Coeff-Com: -0.338D-03 0.527D-01 0.500D-01 0.758D-01 0.291D+00 0.531D+00
 Coeff:     -0.338D-03 0.527D-01 0.500D-01 0.758D-01 0.291D+00 0.531D+00
 Gap=     0.225 Goal=   None    Shift=    0.000
 RMSDP=9.48D-09 MaxDP=2.11D-07 DE=-8.00D-11 OVMax= 8.38D-07

 SCF Done:  E(RB3LYP) =  -311.000029049     A.U. after   12 cycles
            NFock= 12  Conv=0.95D-08     -V/T= 2.0055
 KE= 3.093066984417D+02 PE=-1.401662300236D+03 EE= 4.407653467691D+02
 Leave Link  502 at Tue Jan 14 13:35:28 2025, MaxMem=   104857600 cpu:             125.0 elap:             125.2
 (Enter /sw/cluster/pub/apps//g16/l601.exe)
 Copying SCF densities to generalized density rwf, IOpCl= 0 IROHF=0.

 **********************************************************************

            Population analysis using the SCF density.

 **********************************************************************

 Alpha  occ. eigenvalues --  -10.17832 -10.17829 -10.16861 -10.16837 -10.16803
 Alpha  occ. eigenvalues --  -10.16781 -10.16672 -10.16672  -0.85919  -0.78649
 Alpha  occ. eigenvalues --   -0.74283  -0.71993  -0.65602  -0.60695  -0.57400
 Alpha  occ. eigenvalues --   -0.49317  -0.47188  -0.45069  -0.42488  -0.41677
 Alpha  occ. eigenvalues --   -0.41638  -0.40101  -0.39766  -0.37410  -0.34670
 Alpha  occ. eigenvalues --   -0.34101  -0.33512  -0.25331  -0.23643
 Alpha virt. eigenvalues --   -0.01169  -0.00600   0.04485   0.04918   0.06971
 Alpha virt. eigenvalues --    0.07431   0.10134   0.10189   0.11054   0.12696
 Alpha virt. eigenvalues --    0.12919   0.13474   0.14255   0.15099   0.16826
 Alpha virt. eigenvalues --    0.17790   0.19110   0.19425   0.21066   0.21214
 Alpha virt. eigenvalues --    0.23191   0.24316   0.27024   0.27196   0.27494
 Alpha virt. eigenvalues --    0.28753   0.28948   0.31324   0.31568   0.32633
 Alpha virt. eigenvalues --    0.34357   0.34777   0.36091   0.37126   0.37451
 Alpha virt. eigenvalues --    0.38164   0.38898   0.40893   0.42526   0.42778
 Alpha virt. eigenvalues --    0.43246   0.43702   0.44369   0.46170   0.47249
 Alpha virt. eigenvalues --    0.47626   0.48874   0.49994   0.51043   0.51798
 Alpha virt. eigenvalues --    0.52532   0.52814   0.54847   0.55497   0.60905
 Alpha virt. eigenvalues --    0.61750   0.63379   0.64635   0.66052   0.68062
 Alpha virt. eigenvalues --    0.68998   0.69322   0.73922   0.75437   0.76092
 Alpha virt. eigenvalues --    0.77968   0.79788   0.80539   0.82936   0.83705
 Alpha virt. eigenvalues --    0.87282   0.88408   0.88916   0.90949   0.94976
 Alpha virt. eigenvalues --    0.95474   0.95497   0.99428   0.99783   1.02083
 Alpha virt. eigenvalues --    1.03690   1.06356   1.07330   1.07519   1.13765
 Alpha virt. eigenvalues --    1.14142   1.14740   1.20190   1.22432   1.23227
 Alpha virt. eigenvalues --    1.23415   1.25001   1.26932   1.29848   1.29907
 Alpha virt. eigenvalues --    1.33040   1.34227   1.34231   1.39487   1.42410
 Alpha virt. eigenvalues --    1.46546   1.48240   1.50154   1.50808   1.52343
 Alpha virt. eigenvalues --    1.52631   1.53858   1.55002   1.55532   1.57158
 Alpha virt. eigenvalues --    1.57797   1.59499   1.59691   1.62586   1.62951
 Alpha virt. eigenvalues --    1.63705   1.66331   1.67040   1.68697   1.71920
 Alpha virt. eigenvalues --    1.74562   1.77220   1.82205   1.84836   1.87649
 Alpha virt. eigenvalues --    1.89765   1.90707   1.95748   1.97916   1.99166
 Alpha virt. eigenvalues --    2.00848   2.01095   2.02465   2.05079   2.08855
 Alpha virt. eigenvalues --    2.12223   2.14103   2.16600   2.17540   2.17955
 Alpha virt. eigenvalues --    2.21018   2.21291   2.21713   2.26158   2.27781
 Alpha virt. eigenvalues --    2.31642   2.35068   2.36290   2.37089   2.40125
 Alpha virt. eigenvalues --    2.40590   2.43803   2.47866   2.48532   2.49699
 Alpha virt. eigenvalues --    2.53391   2.54728   2.54874   2.55571   2.59832
 Alpha virt. eigenvalues --    2.61128   2.61241   2.64304   2.64496   2.69480
 Alpha virt. eigenvalues --    2.69863   2.72593   2.73302   2.74627   2.74800
 Alpha virt. eigenvalues --    2.77651   2.78048   2.80674   2.82859   2.85330
 Alpha virt. eigenvalues --    2.85519   2.90709   2.91435   2.92760   2.93204
 Alpha virt. eigenvalues --    2.94751   2.96858   2.99240   2.99711   3.05266
 Alpha virt. eigenvalues --    3.05340   3.05776   3.08841   3.09236   3.11338
 Alpha virt. eigenvalues --    3.12676   3.13208   3.13793   3.15322   3.16733
 Alpha virt. eigenvalues --    3.16929   3.18446   3.20877   3.23998   3.25252
 Alpha virt. eigenvalues --    3.25806   3.27935   3.28873   3.30867   3.31493
 Alpha virt. eigenvalues --    3.33000   3.34498   3.35945   3.40955   3.41221
 Alpha virt. eigenvalues --    3.41548   3.42840   3.44209   3.46218   3.49611
 Alpha virt. eigenvalues --    3.49799   3.50300   3.50861   3.56758   3.56769
 Alpha virt. eigenvalues --    3.59405   3.68493   3.68691   3.70961   3.72277
 Alpha virt. eigenvalues --    3.73512   3.76256   3.78673   3.79201   3.84611
 Alpha virt. eigenvalues --    3.84830   3.87757   3.90311   3.93009   4.00534
 Alpha virt. eigenvalues --    4.03899   4.04427   4.10466   4.11351   4.13345
 Alpha virt. eigenvalues --    4.18215   4.18420   4.21129   4.21711   4.25555
 Alpha virt. eigenvalues --    4.28372   4.29508   4.30503   4.33801   4.41642
 Alpha virt. eigenvalues --    4.41847   4.46823   4.48114   4.53324   4.54961
 Alpha virt. eigenvalues --    4.56565   4.64633   4.71500   4.72849   4.74868
 Alpha virt. eigenvalues --    4.89205   4.92009   4.93551   5.01563   5.08385
 Alpha virt. eigenvalues --    5.21851   5.32352   5.42736   5.43586   5.55813
 Alpha virt. eigenvalues --    5.68241  21.94865  22.37719  22.39924  22.69888
 Alpha virt. eigenvalues --   22.71531  22.72900  22.91026  23.30801
          Condensed to atoms (all electrons):
               1          2          3          4          5          6
     1  C    4.944505   0.461612  -0.007857  -0.070994  -0.013461   0.494648
     2  C    0.461612   5.001052   0.470477  -0.007857  -0.055434  -0.036129
     3  C   -0.007857   0.470477   5.001052   0.461612  -0.036129  -0.055434
     4  C   -0.070994  -0.007857   0.461612   4.944505   0.494648  -0.013461
     5  C   -0.013461  -0.055434  -0.036129   0.494648   4.980246   0.469678
     6  C    0.494648  -0.036129  -0.055434  -0.013461   0.469678   4.980246
     7  H   -0.062506   0.434901  -0.054724   0.011362  -0.002262   0.011285
     8  H    0.011362  -0.054724   0.434901  -0.062506   0.011285  -0.002262
     9  H    0.010807  -0.002020   0.012137  -0.057946   0.426856  -0.050878
    10  H   -0.057946   0.012137  -0.002020   0.010807  -0.050878   0.426856
    11  C    0.287722  -0.068745   0.007549  -0.000357   0.011493  -0.064946
    12  C   -0.000357   0.007549  -0.068745   0.287722  -0.064946   0.011493
    13  H   -0.053757  -0.003497   0.000989   0.000124  -0.000701   0.003148
    14  H   -0.062229   0.005787  -0.000330  -0.000025   0.001700  -0.003014
    15  H   -0.029456  -0.002237  -0.000228   0.000060  -0.000443  -0.004654
    16  H    0.000124   0.000989  -0.003497  -0.053757   0.003148  -0.000701
    17  H   -0.000025  -0.000330   0.005787  -0.062229  -0.003014   0.001700
    18  H    0.000060  -0.000228  -0.002237  -0.029456  -0.004654  -0.000443
               7          8          9         10         11         12
     1  C   -0.062506   0.011362   0.010807  -0.057946   0.287722  -0.000357
     2  C    0.434901  -0.054724  -0.002020   0.012137  -0.068745   0.007549
     3  C   -0.054724   0.434901   0.012137  -0.002020   0.007549  -0.068745
     4  C    0.011362  -0.062506  -0.057946   0.010807  -0.000357   0.287722
     5  C   -0.002262   0.011285   0.426856  -0.050878   0.011493  -0.064946
     6  C    0.011285  -0.002262  -0.050878   0.426856  -0.064946   0.011493
     7  H    0.577151  -0.008659   0.000101  -0.000336  -0.006290  -0.000443
     8  H   -0.008659   0.577151  -0.000336   0.000101  -0.000443  -0.006290
     9  H    0.000101  -0.000336   0.577834  -0.008133  -0.000480  -0.008962
    10  H   -0.000336   0.000101  -0.008133   0.577834  -0.008962  -0.000480
    11  C   -0.006290  -0.000443  -0.000480  -0.008962   4.968395   0.000213
    12  C   -0.000443  -0.006290  -0.008962  -0.000480   0.000213   4.968395
    13  H    0.001838  -0.000026   0.000019  -0.000002   0.419918  -0.000005
    14  H   -0.000028   0.000020  -0.000046   0.003557   0.427632  -0.000006
    15  H    0.000718   0.000009   0.000020   0.000358   0.388432  -0.000009
    16  H   -0.000026   0.001838  -0.000002   0.000019  -0.000005   0.419918
    17  H    0.000020  -0.000028   0.003557  -0.000046  -0.000006   0.427632
    18  H    0.000009   0.000718   0.000358   0.000020  -0.000009   0.388432
              13         14         15         16         17         18
     1  C   -0.053757  -0.062229  -0.029456   0.000124  -0.000025   0.000060
     2  C   -0.003497   0.005787  -0.002237   0.000989  -0.000330  -0.000228
     3  C    0.000989  -0.000330  -0.000228  -0.003497   0.005787  -0.002237
     4  C    0.000124  -0.000025   0.000060  -0.053757  -0.062229  -0.029456
     5  C   -0.000701   0.001700  -0.000443   0.003148  -0.003014  -0.004654
     6  C    0.003148  -0.003014  -0.004654  -0.000701   0.001700  -0.000443
     7  H    0.001838  -0.000028   0.000718  -0.000026   0.000020   0.000009
     8  H   -0.000026   0.000020   0.000009   0.001838  -0.000028   0.000718
     9  H    0.000019  -0.000046   0.000020  -0.000002   0.003557   0.000358
    10  H   -0.000002   0.003557   0.000358   0.000019  -0.000046   0.000020
    11  C    0.419918   0.427632   0.388432  -0.000005  -0.000006  -0.000009
    12  C   -0.000005  -0.000006  -0.000009   0.419918   0.427632   0.388432
    13  H    0.575275  -0.025121  -0.034154   0.000001   0.000000  -0.000001
    14  H   -0.025121   0.566954  -0.027752   0.000000   0.000001  -0.000001
    15  H   -0.034154  -0.027752   0.589394  -0.000001  -0.000001   0.000002
    16  H    0.000001   0.000000  -0.000001   0.575275  -0.025121  -0.034154
    17  H    0.000000   0.000001  -0.000001  -0.025121   0.566954  -0.027752
    18  H   -0.000001  -0.000001   0.000002  -0.034154  -0.027752   0.589394
 Mulliken charges:
               1
     1  C    0.147749
     2  C   -0.163306
     3  C   -0.163306
     4  C    0.147749
     5  C   -0.167134
     6  C   -0.167134
     7  H    0.097891
     8  H    0.097891
     9  H    0.097113
    10  H    0.097113
    11  C   -0.361112
    12  C   -0.361112
    13  H    0.115953
    14  H    0.112902
    15  H    0.119943
    16  H    0.115953
    17  H    0.112902
    18  H    0.119943
 Sum of Mulliken charges =  -0.00000
 Mulliken charges with hydrogens summed into heavy atoms:
               1
     1  C    0.147749
     2  C   -0.065414
     3  C   -0.065414
     4  C    0.147749
     5  C   -0.070021
     6  C   -0.070021
    11  C   -0.012314
    12  C   -0.012314
 Electronic spatial extent (au):  <R**2>=           1067.5233
 Charge=              0.0000 electrons
 Dipole moment (field-independent basis, Debye):
    X=             -0.0000    Y=             -0.0423    Z=              0.0000  Tot=              0.0423
 Quadrupole moment (field-independent basis, Debye-Ang):
   XX=            -44.9077   YY=            -46.0321   ZZ=            -52.3644
   XY=              0.0000   XZ=              0.0787   YZ=             -0.0000
 Traceless Quadrupole moment (field-independent basis, Debye-Ang):
   XX=              2.8604   YY=              1.7360   ZZ=             -4.5964
   XY=              0.0000   XZ=              0.0787   YZ=             -0.0000
 Octapole moment (field-independent basis, Debye-Ang**2):
  XXX=             -0.0000  YYY=              0.4744  ZZZ=             -0.0000  XYY=              0.0000
  XXY=             -0.1363  XXZ=              0.0000  XZZ=              0.0000  YZZ=             -0.6419
  YYZ=              0.0000  XYZ=              0.0117
 Hexadecapole moment (field-independent basis, Debye-Ang**3):
 XXXX=          -1101.8734 YYYY=           -306.1762 ZZZZ=            -74.7387 XXXY=             -0.0000
 XXXZ=             -0.7524 YYYX=             -0.0000 YYYZ=             -0.0000 ZZZX=              3.3388
 ZZZY=             -0.0000 XXYY=           -227.0600 XXZZ=           -194.6276 YYZZ=            -73.2271
 XXYZ=             -0.0000 YYXZ=             -3.5857 ZZXY=              0.0000
 N-N= 3.405902259766D+02 E-N=-1.401662266999D+03  KE= 3.093066984417D+02
 No NMR shielding tensors so no spin-rotation constants.
 Leave Link  601 at Tue Jan 14 13:35:28 2025, MaxMem=   104857600 cpu:               0.1 elap:               0.1
 (Enter /sw/cluster/pub/apps//g16/l9999.exe)
 1\1\GINC-N02\SP\RB3LYP\def2TZVP\C8H10\UNKNOWN\14-Jan-2025\0\\#P B3LYP/
 def2tzvp nosymm Density=Current\\Single-Point\\0,1\C,0,1.41734015,0.00
 248065,-0.01091327\C,0,0.69389778,-1.19184232,-0.00620903\C,0,-0.69389
 778,-1.19184232,0.00620903\C,0,-1.41734015,0.00248065,0.01091327\C,0,-
 0.69547983,1.1941076,0.00616109\C,0,0.69547983,1.1941076,-0.00616109\H
 ,0,1.22545047,-2.13709593,-0.01108426\H,0,-1.22545047,-2.13709593,0.01
 108426\H,0,-1.22661867,2.13932447,0.0108603\H,0,1.22661867,2.13932447,
 -0.0108603\C,0,2.92373582,-0.0023433,0.00616109\C,0,-2.92373582,-0.002
 3433,-0.00616109\H,0,3.3272642,-0.78269411,-0.64189072\H,0,3.32784847,
 0.95469869,-0.32586034\H,0,3.30699773,-0.18864887,1.0137706\H,0,-3.327
 2642,-0.78269411,0.64189072\H,0,-3.32784847,0.95469869,0.32586034\H,0,
 -3.30699773,-0.18864887,-1.0137706\\Version=ES64L-G16RevA.03\HF=-311.0
 00029\RMSD=9.475e-09\Dipole=0.,-0.0166307,0.\Quadrupole=2.1266416,1.29
 06463,-3.4172879,0.,0.058544,0.\PG=C02 [X(C8H10)]\\@


 ... IT IS NO ONE DREAME THAT
     CAN PLEASE THESE ALL ...

                -- BEN JONSON
 Job cpu time:       0 days  0 hours  2 minutes  8.4 seconds.
 Elapsed time:       0 days  0 hours  2 minutes  8.7 seconds.
 File lengths (MBytes):  RWF=     56 Int=      0 D2E=      0 Chk=      7 Scr=      1
 Normal termination of Gaussian 16 at Tue Jan 14 13:35:28 2025.
