 Entering Gaussian System, Link 0=g16
 Initial command:
 /sw/cluster/pub/apps//g16/l1.exe "/data/mmaximo/27742/Gau-1915363.inp" -scrdir="/data/mmaximo/27742/"
 Entering Link 1 = /sw/cluster/pub/apps//g16/l1.exe PID=   1915364.
  
 Copyright (c) 1988,1990,1992,1993,1995,1998,2003,2009,2016,
            Gaussian, Inc.  All Rights Reserved.
  
 This is part of the Gaussian(R) 16 program.  It is based on
 the Gaussian(R) 09 system (copyright 2009, Gaussian, Inc.),
 the Gaussian(R) 03 system (copyright 2003, Gaussian, Inc.),
 the Gaussian(R) 98 system (copyright 1998, Gaussian, Inc.),
 the Gaussian(R) 94 system (copyright 1995, Gaussian, Inc.),
 the Gaussian 92(TM) system (copyright 1992, Gaussian, Inc.),
 the Gaussian 90(TM) system (copyright 1990, Gaussian, Inc.),
 the Gaussian 88(TM) system (copyright 1988, Gaussian, Inc.),
 the Gaussian 86(TM) system (copyright 1986, Carnegie Mellon
 University), and the Gaussian 82(TM) system (copyright 1983,
 Carnegie Mellon University). Gaussian is a federally registered
 trademark of Gaussian, Inc.
  
 This software contains proprietary and confidential information,
 including trade secrets, belonging to Gaussian, Inc.
  
 This software is provided under written license and may be
 used, copied, transmitted, or stored only in accord with that
 written license.
  
 The following legend is applicable only to US Government
 contracts under FAR:
  
                    RESTRICTED RIGHTS LEGEND
  
 Use, reproduction and disclosure by the US Government is
 subject to restrictions as set forth in subparagraphs (a)
 and (c) of the Commercial Computer Software - Restricted
 Rights clause in FAR 52.227-19.
  
 Gaussian, Inc.
 340 Quinnipiac St., Bldg. 40, Wallingford CT 06492
  
  
 ---------------------------------------------------------------
 Warning -- This program may not be used in any manner that
 competes with the business of Gaussian, Inc. or will provide
 assistance to any competitor of Gaussian, Inc.  The licensee
 of this program is prohibited from giving any competitor of
 Gaussian, Inc. access to this program.  By using this program,
 the user acknowledges that Gaussian, Inc. is engaged in the
 business of creating and licensing software in the field of
 computational chemistry and represents and warrants to the
 licensee that it is not a competitor of Gaussian, Inc. and that
 it will not use this program in any manner prohibited above.
 ---------------------------------------------------------------
  

 Cite this work as:
 Gaussian 16, Revision A.03,
 M. J. Frisch, G. W. Trucks, H. B. Schlegel, G. E. Scuseria, 
 M. A. Robb, J. R. Cheeseman, G. Scalmani, V. Barone, 
 G. A. Petersson, H. Nakatsuji, X. Li, M. Caricato, A. V. Marenich, 
 J. Bloino, B. G. Janesko, R. Gomperts, B. Mennucci, H. P. Hratchian, 
 J. V. Ortiz, A. F. Izmaylov, J. L. Sonnenberg, D. Williams-Young, 
 F. Ding, F. Lipparini, F. Egidi, J. Goings, B. Peng, A. Petrone, 
 T. Henderson, D. Ranasinghe, V. G. Zakrzewski, J. Gao, N. Rega, 
 G. Zheng, W. Liang, M. Hada, M. Ehara, K. Toyota, R. Fukuda, 
 J. Hasegawa, M. Ishida, T. Nakajima, Y. Honda, O. Kitao, H. Nakai, 
 T. Vreven, K. Throssell, J. A. Montgomery, Jr., J. E. Peralta, 
 F. Ogliaro, M. J. Bearpark, J. J. Heyd, E. N. Brothers, K. N. Kudin, 
 V. N. Staroverov, T. A. Keith, R. Kobayashi, J. Normand, 
 K. Raghavachari, A. P. Rendell, J. C. Burant, S. S. Iyengar, 
 J. Tomasi, M. Cossi, J. M. Millam, M. Klene, C. Adamo, R. Cammi, 
 J. W. Ochterski, R. L. Martin, K. Morokuma, O. Farkas, 
 J. B. Foresman, and D. J. Fox, Gaussian, Inc., Wallingford CT, 2016.
 
 ******************************************
 Gaussian 16:  ES64L-G16RevA.03 25-Dec-2016
                14-Jan-2025 
 ******************************************
 %chk=C6H5Be+.chk
 ----------------------------------------
 #P B3LYP/def2tzvp nosymm Density=Current
 ----------------------------------------
 1/30=1,38=1,172=1/1;
 2/12=2,15=1,17=6,18=5,40=1/2;
 3/5=44,7=101,11=2,25=1,30=1,74=-5/1,2,3;
 4//1;
 5/5=2,38=5/2;
 6/7=2,8=2,9=2,10=2,22=-1,28=1/1;
 99/5=1,9=1/99;
 Leave Link    1 at Tue Jan 14 13:39:45 2025, MaxMem=           0 cpu:               0.0 elap:               0.0
 (Enter /sw/cluster/pub/apps//g16/l101.exe)
 ------------
 Single-Point
 ------------
 Symbolic Z-matrix:
 Charge =  1 Multiplicity = 1
 C                     0.        1.59676   0. 
 C                     1.21091   0.90843   0. 
 C                     1.22176  -0.47678   0. 
 C                     0.       -1.18403   0. 
 C                    -1.22176  -0.47678   0. 
 C                    -1.21091   0.90843   0. 
 H                     0.        2.67922   0. 
 H                     2.14703   1.45125   0. 
 H                     2.17184  -0.99557   0. 
 H                    -2.17184  -0.99557   0. 
 H                    -2.14703   1.45125   0. 
 Be                    0.       -2.81168   0. 
 
 ITRead=  0  0  0  0  0  0  0  0  0  0  0  0
 MicOpt= -1 -1 -1 -1 -1 -1 -1 -1 -1 -1 -1 -1
 NAtoms=     12 NQM=       12 NQMF=       0 NMMI=      0 NMMIF=      0
                NMic=       0 NMicF=      0.
                    Isotopes and Nuclear Properties:
 (Nuclear quadrupole moments (NQMom) in fm**2, nuclear magnetic moments (NMagM)
  in nuclear magnetons)

  Atom         1           2           3           4           5           6           7           8           9          10
 IAtWgt=          12          12          12          12          12          12           1           1           1           1
 AtmWgt=  12.0000000  12.0000000  12.0000000  12.0000000  12.0000000  12.0000000   1.0078250   1.0078250   1.0078250   1.0078250
 NucSpn=           0           0           0           0           0           0           1           1           1           1
 AtZEff=  -0.0000000  -0.0000000  -0.0000000  -0.0000000  -0.0000000  -0.0000000  -0.0000000  -0.0000000  -0.0000000  -0.0000000
 NQMom=    0.0000000   0.0000000   0.0000000   0.0000000   0.0000000   0.0000000   0.0000000   0.0000000   0.0000000   0.0000000
 NMagM=    0.0000000   0.0000000   0.0000000   0.0000000   0.0000000   0.0000000   2.7928460   2.7928460   2.7928460   2.7928460
 AtZNuc=   6.0000000   6.0000000   6.0000000   6.0000000   6.0000000   6.0000000   1.0000000   1.0000000   1.0000000   1.0000000

  Atom        11          12
 IAtWgt=           1           9
 AtmWgt=   1.0078250   9.0121825
 NucSpn=           1           3
 AtZEff=  -0.0000000  -0.0000000
 NQMom=    0.0000000   5.2880000
 NMagM=    2.7928460  -1.1779000
 AtZNuc=   1.0000000   4.0000000
 Leave Link  101 at Tue Jan 14 13:39:45 2025, MaxMem=   104857600 cpu:               0.0 elap:               0.0
 (Enter /sw/cluster/pub/apps//g16/l202.exe)
                          Input orientation:                          
 ---------------------------------------------------------------------
 Center     Atomic      Atomic             Coordinates (Angstroms)
 Number     Number       Type             X           Y           Z
 ---------------------------------------------------------------------
      1          6           0        0.000000    1.596758    0.000000
      2          6           0        1.210910    0.908428    0.000000
      3          6           0        1.221756   -0.476778    0.000000
      4          6           0        0.000000   -1.184032    0.000000
      5          6           0       -1.221756   -0.476778    0.000000
      6          6           0       -1.210910    0.908428    0.000000
      7          1           0        0.000000    2.679219    0.000000
      8          1           0        2.147025    1.451250    0.000000
      9          1           0        2.171840   -0.995567    0.000000
     10          1           0       -2.171840   -0.995567    0.000000
     11          1           0       -2.147025    1.451250    0.000000
     12          4           0        0.000000   -2.811684    0.000000
 ---------------------------------------------------------------------
                    Distance matrix (angstroms):
                    1          2          3          4          5
     1  C    0.000000
     2  C    1.392875   0.000000
     3  C    2.406707   1.385248   0.000000
     4  C    2.780790   2.417580   1.411700   0.000000
     5  C    2.406707   2.799403   2.443512   1.411700   0.000000
     6  C    1.392875   2.421820   2.799403   2.417580   1.385248
     7  H    1.082461   2.145228   3.384229   3.863251   3.384229
     8  H    2.151950   1.082112   2.138554   3.399180   3.881492
     9  H    3.381869   2.132741   1.082498   2.180002   3.433021
    10  H    3.381869   3.881777   3.433021   2.180002   1.082498
    11  H    2.151950   3.401527   3.881492   3.399180   2.138554
    12  Be   4.408442   3.912229   2.635237   1.627652   2.635237
                    6          7          8          9         10
     6  C    0.000000
     7  H    2.145228   0.000000
     8  H    3.401527   2.473383   0.000000
     9  H    3.881777   4.268599   2.446943   0.000000
    10  H    2.132741   4.268599   4.963820   4.343680   0.000000
    11  H    1.082112   2.473383   4.294050   4.963820   2.446943
    12  Be   3.912229   5.490903   4.773083   2.831108   2.831108
                   11         12
    11  H    0.000000
    12  Be   4.773083   0.000000
 Symmetry turned off by external request.
 Stoichiometry    C6H5Be(1+)
 Framework group  C2V[C2(BeCCH),SGV(C4H4)]
 Deg. of freedom    11
 Full point group                 C2V     NOp   4
 Rotational constants (GHZ):           5.6268918           3.2204760           2.0482103
 Leave Link  202 at Tue Jan 14 13:39:45 2025, MaxMem=   104857600 cpu:               0.0 elap:               0.0
 (Enter /sw/cluster/pub/apps//g16/l301.exe)
 Standard basis: def2TZVP (5D, 7F)
 Ernie: Thresh=  0.10000D-02 Tol=  0.10000D-05 Strict=F.
   235 basis functions,   375 primitive gaussians,   266 cartesian basis functions
    22 alpha electrons       22 beta electrons
       nuclear repulsion energy       223.5827148528 Hartrees.
 IExCor=  402 DFT=T Ex+Corr=B3LYP ExCW=0 ScaHFX=  0.200000
 ScaDFX=  0.800000  0.720000  1.000000  0.810000 ScalE2=  1.000000  1.000000
 IRadAn=      5 IRanWt=     -1 IRanGd=            0 ICorTp=0 IEmpDi=  4
 NAtoms=   12 NActive=   12 NUniq=   12 SFac= 1.00D+00 NAtFMM=   60 NAOKFM=F Big=F
 Integral buffers will be    131072 words long.
 Raffenetti 2 integral format.
 Two-electron integral symmetry is turned off.
 Leave Link  301 at Tue Jan 14 13:39:45 2025, MaxMem=   104857600 cpu:               0.0 elap:               0.0
 (Enter /sw/cluster/pub/apps//g16/l302.exe)
 NPDir=0 NMtPBC=     1 NCelOv=     1 NCel=       1 NClECP=     1 NCelD=      1
         NCelK=      1 NCelE2=     1 NClLst=     1 CellRange=     0.0.
 One-electron integrals computed using PRISM.
   1 Symmetry operations used in ECPInt.
 ECPInt:  NShTT=    4560 NPrTT=   14025 LenC2=    4516 LenP2D=   11630.
 LDataN:  DoStor=T MaxTD1= 6 Len=  172
 NBasis=   235 RedAO= T EigKep=  9.55D-06  NBF=   235
 NBsUse=   235 1.00D-06 EigRej= -1.00D+00 NBFU=   235
 Precomputing XC quadrature grid using
 IXCGrd= 4 IRadAn=           5 IRanWt=          -1 IRanGd=           0 AccXCQ= 0.00D+00.
 Generated NRdTot=       0 NPtTot=           0 NUsed=           0 NTot=          32
 NSgBfM=   265   265   265   265   265 MxSgAt=    12 MxSgA2=    12.
 Leave Link  302 at Tue Jan 14 13:39:45 2025, MaxMem=   104857600 cpu:               0.1 elap:               0.1
 (Enter /sw/cluster/pub/apps//g16/l303.exe)
 DipDrv:  MaxL=1.
 Leave Link  303 at Tue Jan 14 13:39:45 2025, MaxMem=   104857600 cpu:               0.0 elap:               0.0
 (Enter /sw/cluster/pub/apps//g16/l401.exe)
 ExpMin= 3.27D-02 ExpMax= 1.36D+04 ExpMxC= 4.63D+02 IAcc=3 IRadAn=         5 AccDes= 0.00D+00
 Harris functional with IExCor=  402 and IRadAn=       5 diagonalized for initial guess.
 HarFok:  IExCor=  402 AccDes= 0.00D+00 IRadAn=         5 IDoV= 1 UseB2=F ITyADJ=14
 ICtDFT=  3500011 ScaDFX=  1.000000  1.000000  1.000000  1.000000
 FoFCou: FMM=F IPFlag=           0 FMFlag=      100000 FMFlg1=           0
         NFxFlg=           0 DoJE=T BraDBF=F KetDBF=T FulRan=T
         wScrn=  0.000000 ICntrl=       500 IOpCl=  0 I1Cent=   200000004 NGrid=           0
         NMat0=    1 NMatS0=      1 NMatT0=    0 NMatD0=    1 NMtDS0=    0 NMtDT0=    0
 Symmetry not used in FoFCou.
 Harris En= -246.305825847568    
 JPrj=0 DoOrth=F DoCkMO=F.
 Leave Link  401 at Tue Jan 14 13:39:47 2025, MaxMem=   104857600 cpu:               1.6 elap:               1.6
 (Enter /sw/cluster/pub/apps//g16/l502.exe)
 Two-electron integral symmetry not used.
 Closed shell SCF:
 Using DIIS extrapolation, IDIIS=  1040.
 NGot=   104857600 LenX=   104712642 LenY=   104641445
 Requested convergence on RMS density matrix=1.00D-08 within 128 cycles.
 Requested convergence on MAX density matrix=1.00D-06.
 Requested convergence on             energy=1.00D-06.
 No special actions if energy rises.
 Fock matrices will be formed incrementally for  20 cycles.

 Cycle   1  Pass 1  IDiag  1:
 FoFJK:  IHMeth= 1 ICntrl=       0 DoSepK=F KAlg= 0 I1Cent=           0 FoldK=F
 IRaf= 980000000 NMat=       1 IRICut=       1 DoRegI=T DoRafI=F ISym2E= 0 IDoP0=0 IntGTp=1.
 FoFCou: FMM=F IPFlag=           0 FMFlag=      100000 FMFlg1=           0
         NFxFlg=           0 DoJE=F BraDBF=F KetDBF=F FulRan=T
         wScrn=  0.000000 ICntrl=         0 IOpCl=  0 I1Cent=           0 NGrid=           0
         NMat0=    1 NMatS0=      1 NMatT0=    0 NMatD0=    1 NMtDS0=    0 NMtDT0=    0
 Symmetry not used in FoFCou.
 E= -245.891784185987    
 DIIS: error= 3.12D-02 at cycle   1 NSaved=   1.
 NSaved= 1 IEnMin= 1 EnMin= -245.891784185987     IErMin= 1 ErrMin= 3.12D-02
 ErrMax= 3.12D-02  0.00D+00 EMaxC= 1.00D-01 BMatC= 2.07D-01 BMatP= 2.07D-01
 IDIUse=3 WtCom= 6.88D-01 WtEn= 3.12D-01
 Coeff-Com:  0.100D+01
 Coeff-En:   0.100D+01
 Coeff:      0.100D+01
 Gap=     0.196 Goal=   None    Shift=    0.000
 GapD=    0.196 DampG=1.000 DampE=0.500 DampFc=0.5000 IDamp=-1.
 Damping current iteration by 5.00D-01
 RMSDP=7.25D-03 MaxDP=5.68D-01              OVMax= 6.65D-01

 Cycle   2  Pass 1  IDiag  1:
 RMSU=  3.53D-03    CP:  9.31D-01
 E= -245.516082790906     Delta-E=        0.375701395081 Rises=F Damp=T
 DIIS: error= 3.99D-02 at cycle   2 NSaved=   2.
 NSaved= 2 IEnMin= 1 EnMin= -245.891784185987     IErMin= 1 ErrMin= 3.12D-02
 ErrMax= 3.99D-02  0.00D+00 EMaxC= 1.00D-01 BMatC= 1.47D-01 BMatP= 2.07D-01
 IDIUse=3 WtCom= 6.01D-01 WtEn= 3.99D-01
 Coeff-Com:  0.444D+00 0.556D+00
 Coeff-En:   0.731D+00 0.269D+00
 Coeff:      0.558D+00 0.442D+00
 Gap=     0.175 Goal=   None    Shift=    0.000
 RMSDP=4.44D-03 MaxDP=2.86D-01 DE= 3.76D-01 OVMax= 1.00D+00

 Cycle   3  Pass 1  IDiag  1:
 RMSU=  3.40D-03    CP:  7.91D-01  3.46D-01
 E= -246.083816307609     Delta-E=       -0.567733516703 Rises=F Damp=F
 DIIS: error= 2.55D-02 at cycle   3 NSaved=   3.
 NSaved= 3 IEnMin= 3 EnMin= -246.083816307609     IErMin= 3 ErrMin= 2.55D-02
 ErrMax= 2.55D-02  0.00D+00 EMaxC= 1.00D-01 BMatC= 3.37D-02 BMatP= 1.47D-01
 IDIUse=3 WtCom= 7.45D-01 WtEn= 2.55D-01
 Coeff-Com:  0.187D+00 0.281D+00 0.532D+00
 Coeff-En:   0.000D+00 0.000D+00 0.100D+01
 Coeff:      0.140D+00 0.209D+00 0.651D+00
 Gap=     0.094 Goal=   None    Shift=    0.000
 RMSDP=1.31D-03 MaxDP=4.05D-02 DE=-5.68D-01 OVMax= 1.64D-01

 Cycle   4  Pass 1  IDiag  1:
 RMSU=  1.08D-03    CP:  8.21D-01  4.02D-01  8.17D-01
 E= -246.113198799552     Delta-E=       -0.029382491943 Rises=F Damp=F
 DIIS: error= 1.25D-02 at cycle   4 NSaved=   4.
 NSaved= 4 IEnMin= 4 EnMin= -246.113198799552     IErMin= 4 ErrMin= 1.25D-02
 ErrMax= 1.25D-02  0.00D+00 EMaxC= 1.00D-01 BMatC= 1.98D-02 BMatP= 3.37D-02
 IDIUse=3 WtCom= 8.75D-01 WtEn= 1.25D-01
 Coeff-Com:  0.342D-01 0.133D+00 0.397D+00 0.437D+00
 Coeff-En:   0.000D+00 0.000D+00 0.271D+00 0.729D+00
 Coeff:      0.299D-01 0.116D+00 0.381D+00 0.473D+00
 Gap=     0.071 Goal=   None    Shift=    0.000
 RMSDP=6.57D-04 MaxDP=3.90D-02 DE=-2.94D-02 OVMax= 7.23D-02

 Cycle   5  Pass 1  IDiag  1:
 RMSU=  5.61D-04    CP:  8.27D-01  4.57D-01  8.07D-01  7.51D-01
 E= -246.133716103975     Delta-E=       -0.020517304423 Rises=F Damp=F
 DIIS: error= 6.91D-03 at cycle   5 NSaved=   5.
 NSaved= 5 IEnMin= 5 EnMin= -246.133716103975     IErMin= 5 ErrMin= 6.91D-03
 ErrMax= 6.91D-03  0.00D+00 EMaxC= 1.00D-01 BMatC= 2.26D-03 BMatP= 1.98D-02
 IDIUse=3 WtCom= 9.31D-01 WtEn= 6.91D-02
 Coeff-Com: -0.143D-01 0.450D-01 0.709D-01 0.260D+00 0.638D+00
 Coeff-En:   0.000D+00 0.000D+00 0.000D+00 0.471D-01 0.953D+00
 Coeff:     -0.133D-01 0.419D-01 0.660D-01 0.245D+00 0.660D+00
 Gap=     0.068 Goal=   None    Shift=    0.000
 RMSDP=2.00D-04 MaxDP=8.00D-03 DE=-2.05D-02 OVMax= 3.15D-02

 Cycle   6  Pass 1  IDiag  1:
 RMSU=  1.61D-04    CP:  8.28D-01  4.69D-01  7.96D-01  8.48D-01  1.01D+00
 E= -246.136257602254     Delta-E=       -0.002541498279 Rises=F Damp=F
 DIIS: error= 2.11D-03 at cycle   6 NSaved=   6.
 NSaved= 6 IEnMin= 6 EnMin= -246.136257602254     IErMin= 6 ErrMin= 2.11D-03
 ErrMax= 2.11D-03  0.00D+00 EMaxC= 1.00D-01 BMatC= 4.38D-04 BMatP= 2.26D-03
 IDIUse=3 WtCom= 9.79D-01 WtEn= 2.11D-02
 Coeff-Com: -0.120D-01 0.959D-02-0.399D-01 0.799D-01 0.411D+00 0.552D+00
 Coeff-En:   0.000D+00 0.000D+00 0.000D+00 0.000D+00 0.607D-02 0.994D+00
 Coeff:     -0.117D-01 0.938D-02-0.391D-01 0.782D-01 0.402D+00 0.561D+00
 Gap=     0.068 Goal=   None    Shift=    0.000
 RMSDP=1.13D-04 MaxDP=5.27D-03 DE=-2.54D-03 OVMax= 1.10D-02

 Cycle   7  Pass 1  IDiag  1:
 RMSU=  7.10D-05    CP:  8.30D-01  4.73D-01  7.85D-01  8.43D-01  1.14D+00
                    CP:  9.67D-01
 E= -246.136714190188     Delta-E=       -0.000456587934 Rises=F Damp=F
 DIIS: error= 9.80D-04 at cycle   7 NSaved=   7.
 NSaved= 7 IEnMin= 7 EnMin= -246.136714190188     IErMin= 7 ErrMin= 9.80D-04
 ErrMax= 9.80D-04  0.00D+00 EMaxC= 1.00D-01 BMatC= 4.49D-05 BMatP= 4.38D-04
 IDIUse=3 WtCom= 9.90D-01 WtEn= 9.80D-03
 Coeff-Com:  0.345D-03 0.791D-04-0.187D-01 0.162D-01 0.319D-01 0.205D+00
 Coeff-Com:  0.765D+00
 Coeff-En:   0.000D+00 0.000D+00 0.000D+00 0.000D+00 0.000D+00 0.000D+00
 Coeff-En:   0.100D+01
 Coeff:      0.342D-03 0.784D-04-0.185D-01 0.161D-01 0.316D-01 0.203D+00
 Coeff:      0.767D+00
 Gap=     0.069 Goal=   None    Shift=    0.000
 RMSDP=4.02D-05 MaxDP=1.11D-03 DE=-4.57D-04 OVMax= 4.05D-03

 Cycle   8  Pass 1  IDiag  1:
 RMSU=  1.85D-05    CP:  8.32D-01  4.73D-01  7.79D-01  8.56D-01  1.15D+00
                    CP:  1.09D+00  1.04D+00
 E= -246.136770609485     Delta-E=       -0.000056419296 Rises=F Damp=F
 DIIS: error= 1.12D-04 at cycle   8 NSaved=   8.
 NSaved= 8 IEnMin= 8 EnMin= -246.136770609485     IErMin= 8 ErrMin= 1.12D-04
 ErrMax= 1.12D-04  0.00D+00 EMaxC= 1.00D-01 BMatC= 1.66D-06 BMatP= 4.49D-05
 IDIUse=3 WtCom= 9.99D-01 WtEn= 1.12D-03
 Coeff-Com:  0.108D-02-0.752D-03 0.114D-02 0.607D-02-0.654D-02-0.857D-02
 Coeff-Com:  0.668D-01 0.941D+00
 Coeff-En:   0.000D+00 0.000D+00 0.000D+00 0.000D+00 0.000D+00 0.000D+00
 Coeff-En:   0.000D+00 0.100D+01
 Coeff:      0.108D-02-0.751D-03 0.114D-02 0.607D-02-0.654D-02-0.856D-02
 Coeff:      0.668D-01 0.941D+00
 Gap=     0.069 Goal=   None    Shift=    0.000
 RMSDP=8.47D-06 MaxDP=3.28D-04 DE=-5.64D-05 OVMax= 8.64D-04

 Cycle   9  Pass 1  IDiag  1:
 RMSU=  4.39D-06    CP:  8.32D-01  4.72D-01  7.79D-01  8.54D-01  1.15D+00
                    CP:  1.10D+00  1.11D+00  1.12D+00
 E= -246.136772476105     Delta-E=       -0.000001866620 Rises=F Damp=F
 DIIS: error= 5.55D-05 at cycle   9 NSaved=   9.
 NSaved= 9 IEnMin= 9 EnMin= -246.136772476105     IErMin= 9 ErrMin= 5.55D-05
 ErrMax= 5.55D-05  0.00D+00 EMaxC= 1.00D-01 BMatC= 4.86D-07 BMatP= 1.66D-06
 IDIUse=1 WtCom= 1.00D+00 WtEn= 0.00D+00
 Coeff-Com:  0.610D-03-0.447D-03 0.230D-02 0.357D-02-0.180D-02-0.163D-01
 Coeff-Com: -0.311D-01 0.494D+00 0.550D+00
 Coeff:      0.610D-03-0.447D-03 0.230D-02 0.357D-02-0.180D-02-0.163D-01
 Coeff:     -0.311D-01 0.494D+00 0.550D+00
 Gap=     0.069 Goal=   None    Shift=    0.000
 RMSDP=2.77D-06 MaxDP=7.88D-05 DE=-1.87D-06 OVMax= 2.84D-04

 Cycle  10  Pass 1  IDiag  1:
 RMSU=  1.85D-06    CP:  8.32D-01  4.72D-01  7.79D-01  8.53D-01  1.15D+00
                    CP:  1.10D+00  1.12D+00  1.17D+00  9.17D-01
 E= -246.136772942033     Delta-E=       -0.000000465927 Rises=F Damp=F
 DIIS: error= 2.57D-05 at cycle  10 NSaved=  10.
 NSaved=10 IEnMin=10 EnMin= -246.136772942033     IErMin=10 ErrMin= 2.57D-05
 ErrMax= 2.57D-05  0.00D+00 EMaxC= 1.00D-01 BMatC= 5.62D-08 BMatP= 4.86D-07
 IDIUse=1 WtCom= 1.00D+00 WtEn= 0.00D+00
 Coeff-Com:  0.144D-03-0.164D-03 0.788D-03 0.804D-03 0.165D-02-0.253D-02
 Coeff-Com: -0.267D-01 0.107D-01 0.191D+00 0.824D+00
 Coeff:      0.144D-03-0.164D-03 0.788D-03 0.804D-03 0.165D-02-0.253D-02
 Coeff:     -0.267D-01 0.107D-01 0.191D+00 0.824D+00
 Gap=     0.069 Goal=   None    Shift=    0.000
 RMSDP=2.12D-06 MaxDP=6.05D-05 DE=-4.66D-07 OVMax= 1.63D-04

 Cycle  11  Pass 1  IDiag  1:
 RMSU=  8.47D-07    CP:  8.31D-01  4.71D-01  7.80D-01  8.53D-01  1.14D+00
                    CP:  1.11D+00  1.12D+00  1.20D+00  1.04D+00  1.19D+00
 E= -246.136773019411     Delta-E=       -0.000000077379 Rises=F Damp=F
 DIIS: error= 4.54D-06 at cycle  11 NSaved=  11.
 NSaved=11 IEnMin=11 EnMin= -246.136773019411     IErMin=11 ErrMin= 4.54D-06
 ErrMax= 4.54D-06  0.00D+00 EMaxC= 1.00D-01 BMatC= 2.75D-09 BMatP= 5.62D-08
 IDIUse=1 WtCom= 1.00D+00 WtEn= 0.00D+00
 Coeff-Com:  0.150D-04-0.933D-05 0.742D-04 0.546D-04 0.871D-03 0.110D-02
 Coeff-Com: -0.374D-02-0.366D-01-0.585D-02 0.144D+00 0.900D+00
 Coeff:      0.150D-04-0.933D-05 0.742D-04 0.546D-04 0.871D-03 0.110D-02
 Coeff:     -0.374D-02-0.366D-01-0.585D-02 0.144D+00 0.900D+00
 Gap=     0.069 Goal=   None    Shift=    0.000
 RMSDP=8.13D-07 MaxDP=3.46D-05 DE=-7.74D-08 OVMax= 7.15D-05

 Cycle  12  Pass 1  IDiag  1:
 RMSU=  1.59D-07    CP:  8.31D-01  4.71D-01  7.80D-01  8.53D-01  1.14D+00
                    CP:  1.11D+00  1.12D+00  1.20D+00  1.07D+00  1.29D+00
                    CP:  1.21D+00
 E= -246.136773025337     Delta-E=       -0.000000005926 Rises=F Damp=F
 DIIS: error= 9.04D-07 at cycle  12 NSaved=  12.
 NSaved=12 IEnMin=12 EnMin= -246.136773025337     IErMin=12 ErrMin= 9.04D-07
 ErrMax= 9.04D-07  0.00D+00 EMaxC= 1.00D-01 BMatC= 4.75D-11 BMatP= 2.75D-09
 IDIUse=1 WtCom= 1.00D+00 WtEn= 0.00D+00
 Coeff-Com: -0.502D-05 0.575D-06-0.156D-04-0.799D-05 0.646D-04 0.273D-03
 Coeff-Com:  0.684D-04-0.312D-02-0.616D-02-0.409D-02 0.161D+00 0.852D+00
 Coeff:     -0.502D-05 0.575D-06-0.156D-04-0.799D-05 0.646D-04 0.273D-03
 Coeff:      0.684D-04-0.312D-02-0.616D-02-0.409D-02 0.161D+00 0.852D+00
 Gap=     0.069 Goal=   None    Shift=    0.000
 RMSDP=5.77D-08 MaxDP=3.40D-06 DE=-5.93D-09 OVMax= 3.39D-06

 Cycle  13  Pass 1  IDiag  1:
 RMSU=  2.38D-08    CP:  8.31D-01  4.71D-01  7.80D-01  8.53D-01  1.14D+00
                    CP:  1.11D+00  1.12D+00  1.20D+00  1.07D+00  1.30D+00
                    CP:  1.23D+00  9.45D-01
 E= -246.136773025414     Delta-E=       -0.000000000077 Rises=F Damp=F
 DIIS: error= 1.52D-07 at cycle  13 NSaved=  13.
 NSaved=13 IEnMin=13 EnMin= -246.136773025414     IErMin=13 ErrMin= 1.52D-07
 ErrMax= 1.52D-07  0.00D+00 EMaxC= 1.00D-01 BMatC= 1.94D-12 BMatP= 4.75D-11
 IDIUse=1 WtCom= 1.00D+00 WtEn= 0.00D+00
 Coeff-Com: -0.134D-05 0.746D-06-0.306D-05-0.368D-05-0.818D-05-0.295D-05
 Coeff-Com: -0.168D-04 0.592D-03-0.291D-03-0.110D-02 0.170D-02 0.797D-01
 Coeff-Com:  0.919D+00
 Coeff:     -0.134D-05 0.746D-06-0.306D-05-0.368D-05-0.818D-05-0.295D-05
 Coeff:     -0.168D-04 0.592D-03-0.291D-03-0.110D-02 0.170D-02 0.797D-01
 Coeff:      0.919D+00
 Gap=     0.069 Goal=   None    Shift=    0.000
 RMSDP=6.98D-09 MaxDP=3.98D-07 DE=-7.67D-11 OVMax= 4.19D-07

 SCF Done:  E(RB3LYP) =  -246.136773025     A.U. after   13 cycles
            NFock= 13  Conv=0.70D-08     -V/T= 2.0053
 KE= 2.448280378560D+02 PE=-1.010207730690D+03 EE= 2.956602049559D+02
 Leave Link  502 at Tue Jan 14 13:41:03 2025, MaxMem=   104857600 cpu:              75.6 elap:              76.4
 (Enter /sw/cluster/pub/apps//g16/l601.exe)
 Copying SCF densities to generalized density rwf, IOpCl= 0 IROHF=0.

 **********************************************************************

            Population analysis using the SCF density.

 **********************************************************************

 Alpha  occ. eigenvalues --  -10.35529 -10.35142 -10.35138 -10.33808 -10.33185
 Alpha  occ. eigenvalues --  -10.33182  -4.36219  -1.01981  -0.91279  -0.90759
 Alpha  occ. eigenvalues --   -0.76713  -0.76237  -0.68195  -0.61720  -0.61127
 Alpha  occ. eigenvalues --   -0.58665  -0.56716  -0.53610  -0.50785  -0.48888
 Alpha  occ. eigenvalues --   -0.42977  -0.41964
 Alpha virt. eigenvalues --   -0.35049  -0.25406  -0.24546  -0.17160  -0.15503
 Alpha virt. eigenvalues --   -0.11320  -0.07892  -0.06124  -0.06003  -0.03535
 Alpha virt. eigenvalues --   -0.03501  -0.01508  -0.00893   0.00712   0.02598
 Alpha virt. eigenvalues --    0.03071   0.05676   0.08154   0.08950   0.09035
 Alpha virt. eigenvalues --    0.09195   0.10140   0.11403   0.12518   0.12843
 Alpha virt. eigenvalues --    0.13731   0.14661   0.16417   0.18720   0.19640
 Alpha virt. eigenvalues --    0.20380   0.21245   0.22411   0.23128   0.23714
 Alpha virt. eigenvalues --    0.24362   0.26311   0.28320   0.28454   0.30378
 Alpha virt. eigenvalues --    0.31166   0.31347   0.32186   0.33753   0.35140
 Alpha virt. eigenvalues --    0.36772   0.39827   0.42791   0.42907   0.44219
 Alpha virt. eigenvalues --    0.48974   0.50183   0.51254   0.52685   0.54139
 Alpha virt. eigenvalues --    0.54595   0.58585   0.61235   0.64625   0.65630
 Alpha virt. eigenvalues --    0.67421   0.69161   0.72473   0.73828   0.74860
 Alpha virt. eigenvalues --    0.76263   0.85312   0.86425   0.88742   0.89387
 Alpha virt. eigenvalues --    0.91895   0.93030   1.02099   1.03490   1.03654
 Alpha virt. eigenvalues --    1.06356   1.06371   1.06380   1.06899   1.11915
 Alpha virt. eigenvalues --    1.13774   1.18899   1.23970   1.24679   1.25311
 Alpha virt. eigenvalues --    1.30701   1.32581   1.32890   1.35063   1.37304
 Alpha virt. eigenvalues --    1.41974   1.43276   1.47787   1.50555   1.52215
 Alpha virt. eigenvalues --    1.53301   1.53486   1.56653   1.56737   1.57220
 Alpha virt. eigenvalues --    1.68993   1.70705   1.74360   1.82626   1.83570
 Alpha virt. eigenvalues --    1.87680   1.91741   1.92662   1.94381   1.97975
 Alpha virt. eigenvalues --    2.00760   2.03161   2.08633   2.09966   2.16434
 Alpha virt. eigenvalues --    2.18493   2.19177   2.34382   2.36734   2.40783
 Alpha virt. eigenvalues --    2.41505   2.41611   2.43971   2.45958   2.48754
 Alpha virt. eigenvalues --    2.50079   2.51464   2.51510   2.52096   2.57677
 Alpha virt. eigenvalues --    2.57755   2.58052   2.59980   2.62856   2.63988
 Alpha virt. eigenvalues --    2.67510   2.68829   2.69712   2.69844   2.71423
 Alpha virt. eigenvalues --    2.74891   2.83586   2.86053   2.90383   2.93770
 Alpha virt. eigenvalues --    2.95914   2.97077   2.97211   2.98043   2.98681
 Alpha virt. eigenvalues --    3.04590   3.06065   3.07414   3.08293   3.09537
 Alpha virt. eigenvalues --    3.11860   3.14841   3.18637   3.19021   3.20561
 Alpha virt. eigenvalues --    3.21384   3.26509   3.30406   3.30863   3.35220
 Alpha virt. eigenvalues --    3.35502   3.37103   3.38023   3.42722   3.48752
 Alpha virt. eigenvalues --    3.53893   3.59160   3.59521   3.65582   3.76816
 Alpha virt. eigenvalues --    3.83450   3.86438   3.87155   3.90327   3.91426
 Alpha virt. eigenvalues --    4.00902   4.02403   4.02851   4.04794   4.05828
 Alpha virt. eigenvalues --    4.08756   4.10071   4.12837   4.15229   4.43667
 Alpha virt. eigenvalues --    4.44663   4.45902   4.46907   4.48178   4.64891
 Alpha virt. eigenvalues --    4.70732   4.70953   4.96460   4.98518   4.99232
 Alpha virt. eigenvalues --    5.09304   5.13318   5.19539   5.33650   5.37091
 Alpha virt. eigenvalues --    5.73523   7.36080  21.74602  22.32117  22.38663
 Alpha virt. eigenvalues --   22.43924  22.47113  22.86057
          Condensed to atoms (all electrons):
               1          2          3          4          5          6
     1  C    4.830646   0.456906   0.014390  -0.072975   0.014390   0.456906
     2  C    0.456906   4.973903   0.312105   0.084354  -0.110756   0.019188
     3  C    0.014390   0.312105   5.455127   0.255153  -0.014670  -0.110756
     4  C   -0.072975   0.084354   0.255153   4.513755   0.255153   0.084354
     5  C    0.014390  -0.110756  -0.014670   0.255153   5.455127   0.312105
     6  C    0.456906   0.019188  -0.110756   0.084354   0.312105   4.973903
     7  H    0.412964  -0.035071   0.006615  -0.000413   0.006615  -0.035071
     8  H   -0.028187   0.408968  -0.029308   0.001453  -0.000147   0.005998
     9  H    0.009770  -0.046500   0.436737  -0.066569   0.024519  -0.006654
    10  H    0.009770  -0.006654   0.024519  -0.066569   0.436737  -0.046500
    11  H   -0.028187   0.005998  -0.000147   0.001453  -0.029308   0.408968
    12  Be  -0.012234   0.049641  -0.158655   0.536948  -0.158655   0.049641
               7          8          9         10         11         12
     1  C    0.412964  -0.028187   0.009770   0.009770  -0.028187  -0.012234
     2  C   -0.035071   0.408968  -0.046500  -0.006654   0.005998   0.049641
     3  C    0.006615  -0.029308   0.436737   0.024519  -0.000147  -0.158655
     4  C   -0.000413   0.001453  -0.066569  -0.066569   0.001453   0.536948
     5  C    0.006615  -0.000147   0.024519   0.436737  -0.029308  -0.158655
     6  C   -0.035071   0.005998  -0.006654  -0.046500   0.408968   0.049641
     7  H    0.487263  -0.004251  -0.000167  -0.000167  -0.004251   0.000014
     8  H   -0.004251   0.486446  -0.003095   0.000067  -0.000070  -0.000959
     9  H   -0.000167  -0.003095   0.542200   0.000434   0.000067  -0.042243
    10  H   -0.000167   0.000067   0.000434   0.542200  -0.003095  -0.042243
    11  H   -0.004251  -0.000070   0.000067  -0.003095   0.486446  -0.000959
    12  Be   0.000014  -0.000959  -0.042243  -0.042243  -0.000959   3.378149
 Mulliken charges:
               1
     1  C   -0.064159
     2  C   -0.112083
     3  C   -0.191113
     4  C    0.473904
     5  C   -0.191113
     6  C   -0.112083
     7  H    0.165918
     8  H    0.163086
     9  H    0.151501
    10  H    0.151501
    11  H    0.163086
    12  Be   0.401555
 Sum of Mulliken charges =   1.00000
 Mulliken charges with hydrogens summed into heavy atoms:
               1
     1  C    0.101760
     2  C    0.051003
     3  C   -0.039612
     4  C    0.473904
     5  C   -0.039612
     6  C    0.051003
    12  Be   0.401555
 Electronic spatial extent (au):  <R**2>=            528.8429
 Charge=              1.0000 electrons
 Dipole moment (field-independent basis, Debye):
    X=              0.0000    Y=             -9.8658    Z=             -0.0000  Tot=              9.8658
 Quadrupole moment (field-independent basis, Debye-Ang):
   XX=            -29.3517   YY=              9.9440   ZZ=            -41.0878
   XY=              0.0000   XZ=             -0.0000   YZ=              0.0000
 Traceless Quadrupole moment (field-independent basis, Debye-Ang):
   XX=             -9.1866   YY=             30.1092   ZZ=            -20.9226
   XY=              0.0000   XZ=             -0.0000   YZ=              0.0000
 Octapole moment (field-independent basis, Debye-Ang**2):
  XXX=              0.0000  YYY=           -123.6254  ZZZ=             -0.0000  XYY=              0.0000
  XXY=              1.6098  XXZ=             -0.0000  XZZ=             -0.0000  YZZ=              0.2642
  YYZ=              0.0000  XYZ=              0.0000
 Hexadecapole moment (field-independent basis, Debye-Ang**3):
 XXXX=           -250.9964 YYYY=             68.3396 ZZZZ=            -49.8249 XXXY=              0.0000
 XXXZ=              0.0000 YYYX=              0.0000 YYYZ=              0.0000 ZZZX=              0.0000
 ZZZY=             -0.0000 XXYY=            -98.6644 XXZZ=            -62.8048 YYZZ=            -81.6036
 XXYZ=             -0.0000 YYXZ=             -0.0000 ZZXY=             -0.0000
 N-N= 2.235827148528D+02 E-N=-1.010207716615D+03  KE= 2.448280378560D+02
 No NMR shielding tensors so no spin-rotation constants.
 Leave Link  601 at Tue Jan 14 13:41:04 2025, MaxMem=   104857600 cpu:               0.1 elap:               0.1
 (Enter /sw/cluster/pub/apps//g16/l9999.exe)
 1\1\GINC-N02\SP\RB3LYP\def2TZVP\C6H5Be1(1+)\UNKNOWN\14-Jan-2025\0\\#P 
 B3LYP/def2tzvp nosymm Density=Current\\Single-Point\\1,1\C,0,0.,1.5967
 58,0.\C,0,1.21091,0.908428,0.\C,0,1.221756,-0.476778,0.\C,0,0.,-1.1840
 32,0.\C,0,-1.221756,-0.476778,0.\C,0,-1.21091,0.908428,0.\H,0,0.,2.679
 219,0.\H,0,2.147025,1.45125,0.\H,0,2.17184,-0.995567,0.\H,0,-2.17184,-
 0.995567,0.\H,0,-2.147025,1.45125,0.\Be,0,0.,-2.811684,0.\\Version=ES6
 4L-G16RevA.03\HF=-246.136773\RMSD=6.983e-09\Dipole=0.,-3.8815085,0.\Qu
 adrupole=-6.8299879,22.3854579,-15.55547,0.,0.,0.\PG=C02V [C2(Be1C1C1H
 1),SGV(C4H4)]\\@


 I MET A TRAVELLER FROM AN ANTIQUE LAND
 WHO SAID... TWO VAST AND TRUNKLESS LEGS OF STONE
 STAND IN THE DESERT..... NEAR THEM,  ON THE SAND,
 HALF SUNK,  A SHATTERED VISAGE LIES,  WHOSE FROWN,
 AND WRINKLED LIP,  AND SNEER OF COLD COMMAND
 TELL THAT ITS SCULPTOR WELL THOSE PASSIONS READ
 WHICH YET SURVIVE,  STAMPED ON THESE LIFELESS THINGS
 THE HAND THAT MOCKED THEM,  AND THE HEART THAT FED-
 AND ON THE PEDESTAL THESE WORDS APPEAR 
 MY NAME IS OZYMANDIAS, KING OF KINGS--   
 LOOK ON MY WORKS YE MIGHTY AND DESPAIR. 
 NOTHING BESIDE REMAINS,  ROUND THE DECAY 
 OF THAT COLOSSAL WRECK,  BOUNDLESS AND BARE
 THE LONE AND LEVEL SANDS STRETCH FAR AWAY.
                                    SHELLEY
 Job cpu time:       0 days  0 hours  1 minutes 17.5 seconds.
 Elapsed time:       0 days  0 hours  1 minutes 18.3 seconds.
 File lengths (MBytes):  RWF=     34 Int=      0 D2E=      0 Chk=      4 Scr=      1
 Normal termination of Gaussian 16 at Tue Jan 14 13:41:04 2025.
