 Entering Gaussian System, Link 0=g16
 Initial command:
 /sw/cluster/pub/apps//g16/l1.exe "/data/mmaximo/28032/Gau-918807.inp" -scrdir="/data/mmaximo/28032/"
 Entering Link 1 = /sw/cluster/pub/apps//g16/l1.exe PID=    918808.
  
 Copyright (c) 1988,1990,1992,1993,1995,1998,2003,2009,2016,
            Gaussian, Inc.  All Rights Reserved.
  
 This is part of the Gaussian(R) 16 program.  It is based on
 the Gaussian(R) 09 system (copyright 2009, Gaussian, Inc.),
 the Gaussian(R) 03 system (copyright 2003, Gaussian, Inc.),
 the Gaussian(R) 98 system (copyright 1998, Gaussian, Inc.),
 the Gaussian(R) 94 system (copyright 1995, Gaussian, Inc.),
 the Gaussian 92(TM) system (copyright 1992, Gaussian, Inc.),
 the Gaussian 90(TM) system (copyright 1990, Gaussian, Inc.),
 the Gaussian 88(TM) system (copyright 1988, Gaussian, Inc.),
 the Gaussian 86(TM) system (copyright 1986, Carnegie Mellon
 University), and the Gaussian 82(TM) system (copyright 1983,
 Carnegie Mellon University). Gaussian is a federally registered
 trademark of Gaussian, Inc.
  
 This software contains proprietary and confidential information,
 including trade secrets, belonging to Gaussian, Inc.
  
 This software is provided under written license and may be
 used, copied, transmitted, or stored only in accord with that
 written license.
  
 The following legend is applicable only to US Government
 contracts under FAR:
  
                    RESTRICTED RIGHTS LEGEND
  
 Use, reproduction and disclosure by the US Government is
 subject to restrictions as set forth in subparagraphs (a)
 and (c) of the Commercial Computer Software - Restricted
 Rights clause in FAR 52.227-19.
  
 Gaussian, Inc.
 340 Quinnipiac St., Bldg. 40, Wallingford CT 06492
  
  
 ---------------------------------------------------------------
 Warning -- This program may not be used in any manner that
 competes with the business of Gaussian, Inc. or will provide
 assistance to any competitor of Gaussian, Inc.  The licensee
 of this program is prohibited from giving any competitor of
 Gaussian, Inc. access to this program.  By using this program,
 the user acknowledges that Gaussian, Inc. is engaged in the
 business of creating and licensing software in the field of
 computational chemistry and represents and warrants to the
 licensee that it is not a competitor of Gaussian, Inc. and that
 it will not use this program in any manner prohibited above.
 ---------------------------------------------------------------
  

 Cite this work as:
 Gaussian 16, Revision A.03,
 M. J. Frisch, G. W. Trucks, H. B. Schlegel, G. E. Scuseria, 
 M. A. Robb, J. R. Cheeseman, G. Scalmani, V. Barone, 
 G. A. Petersson, H. Nakatsuji, X. Li, M. Caricato, A. V. Marenich, 
 J. Bloino, B. G. Janesko, R. Gomperts, B. Mennucci, H. P. Hratchian, 
 J. V. Ortiz, A. F. Izmaylov, J. L. Sonnenberg, D. Williams-Young, 
 F. Ding, F. Lipparini, F. Egidi, J. Goings, B. Peng, A. Petrone, 
 T. Henderson, D. Ranasinghe, V. G. Zakrzewski, J. Gao, N. Rega, 
 G. Zheng, W. Liang, M. Hada, M. Ehara, K. Toyota, R. Fukuda, 
 J. Hasegawa, M. Ishida, T. Nakajima, Y. Honda, O. Kitao, H. Nakai, 
 T. Vreven, K. Throssell, J. A. Montgomery, Jr., J. E. Peralta, 
 F. Ogliaro, M. J. Bearpark, J. J. Heyd, E. N. Brothers, K. N. Kudin, 
 V. N. Staroverov, T. A. Keith, R. Kobayashi, J. Normand, 
 K. Raghavachari, A. P. Rendell, J. C. Burant, S. S. Iyengar, 
 J. Tomasi, M. Cossi, J. M. Millam, M. Klene, C. Adamo, R. Cammi, 
 J. W. Ochterski, R. L. Martin, K. Morokuma, O. Farkas, 
 J. B. Foresman, and D. J. Fox, Gaussian, Inc., Wallingford CT, 2016.
 
 ******************************************
 Gaussian 16:  ES64L-G16RevA.03 25-Dec-2016
                20-Jan-2025 
 ******************************************
 %chk=C6H5O+.chk
 -------------------------------------------------
 #p opt freq b3lyp nosymm density=current def2tzvp
 -------------------------------------------------
 1/18=20,19=15,26=3,38=1/1,3;
 2/9=110,12=2,15=1,17=6,18=5,40=1/2;
 3/5=44,7=101,11=2,25=1,30=1,71=1,74=-5/1,2,3;
 4//1;
 5/5=2,38=5/2;
 6/7=2,8=2,9=2,10=2,22=-1,28=1/1;
 7/30=1/1,2,3,16;
 1/18=20,19=15,26=3/3(2);
 2/9=110,15=1/2;
 99//99;
 2/9=110,15=1/2;
 3/5=44,7=101,11=2,25=1,30=1,71=1,74=-5/1,2,3;
 4/5=5,16=3,69=1/1;
 5/5=2,38=5/2;
 7/30=1/1,2,3,16;
 1/18=20,19=15,26=3/3(-5);
 2/9=110,15=1/2;
 6/7=2,8=2,9=2,10=2,19=2,22=-1,28=1/1;
 99/9=1/99;
 Leave Link    1 at Mon Jan 20 14:20:45 2025, MaxMem=           0 cpu:               0.0 elap:               0.0
 (Enter /sw/cluster/pub/apps//g16/l101.exe)
 ------------
 Single-Point
 ------------
 Symbolic Z-matrix:
 Charge =  1 Multiplicity = 1
 C                     0.04313  -1.75009   0.01615 
 C                     1.2657   -1.03718  -0.0216 
 C                     1.29078   0.3185   -0.02972 
 C                    -0.0326    1.0777    0.00275 
 C                    -1.31346   0.2491    0.04275 
 C                    -1.21585  -1.10331   0.04745 
 H                     0.07177  -2.81969   0.02121 
 H                     2.18816  -1.57889  -0.04416 
 H                     2.22118   0.84617  -0.05837 
 H                    -2.27078   0.72646   0.06663 
 O                    -0.06629   2.33564  -0.00321 
 C                    -2.49989  -1.95257   0.08765 
 O                    -3.62542  -1.39047   0.11573 
 O                    -2.41319  -3.37993   0.09307 
 H                    -3.18841  -3.74924  -0.33618 
 
 ITRead=  0  0  0  0  0  0  0  0  0  0  0  0  0  0  0
 MicOpt= -1 -1 -1 -1 -1 -1 -1 -1 -1 -1 -1 -1 -1 -1 -1
 NAtoms=     15 NQM=       15 NQMF=       0 NMMI=      0 NMMIF=      0
                NMic=       0 NMicF=      0.
                    Isotopes and Nuclear Properties:
 (Nuclear quadrupole moments (NQMom) in fm**2, nuclear magnetic moments (NMagM)
  in nuclear magnetons)

  Atom         1           2           3           4           5           6           7           8           9          10
 IAtWgt=          12          12          12          12          12          12           1           1           1           1
 AtmWgt=  12.0000000  12.0000000  12.0000000  12.0000000  12.0000000  12.0000000   1.0078250   1.0078250   1.0078250   1.0078250
 NucSpn=           0           0           0           0           0           0           1           1           1           1
 AtZEff=  -0.0000000  -0.0000000  -0.0000000  -0.0000000  -0.0000000  -0.0000000  -0.0000000  -0.0000000  -0.0000000  -0.0000000
 NQMom=    0.0000000   0.0000000   0.0000000   0.0000000   0.0000000   0.0000000   0.0000000   0.0000000   0.0000000   0.0000000
 NMagM=    0.0000000   0.0000000   0.0000000   0.0000000   0.0000000   0.0000000   2.7928460   2.7928460   2.7928460   2.7928460
 AtZNuc=   6.0000000   6.0000000   6.0000000   6.0000000   6.0000000   6.0000000   1.0000000   1.0000000   1.0000000   1.0000000

  Atom        11          12          13          14          15
 IAtWgt=          16          12          16          16           1
 AtmWgt=  15.9949146  12.0000000  15.9949146  15.9949146   1.0078250
 NucSpn=           0           0           0           0           1
 AtZEff=  -0.0000000  -0.0000000  -0.0000000  -0.0000000  -0.0000000
 NQMom=    0.0000000   0.0000000   0.0000000   0.0000000   0.0000000
 NMagM=    0.0000000   0.0000000   0.0000000   0.0000000   2.7928460
 AtZNuc=   8.0000000   6.0000000   8.0000000   8.0000000   1.0000000
 Leave Link  101 at Mon Jan 20 14:20:45 2025, MaxMem=   104857600 cpu:               0.0 elap:               0.0
 (Enter /sw/cluster/pub/apps//g16/l103.exe)

 GradGradGradGradGradGradGradGradGradGradGradGradGradGradGradGradGradGrad
 Berny optimization.
 Initialization pass.
                           ----------------------------
                           !    Initial Parameters    !
                           ! (Angstroms and Degrees)  !
 --------------------------                            --------------------------
 ! Name  Definition              Value          Derivative Info.                !
 --------------------------------------------------------------------------------
 ! R1    R(1,2)                  1.4157         estimate D2E/DX2                !
 ! R2    R(1,6)                  1.4157         estimate D2E/DX2                !
 ! R3    R(1,7)                  1.07           estimate D2E/DX2                !
 ! R4    R(2,3)                  1.3559         estimate D2E/DX2                !
 ! R5    R(2,8)                  1.07           estimate D2E/DX2                !
 ! R6    R(3,4)                  1.526          estimate D2E/DX2                !
 ! R7    R(3,9)                  1.07           estimate D2E/DX2                !
 ! R8    R(4,5)                  1.526          estimate D2E/DX2                !
 ! R9    R(4,11)                 1.2584         estimate D2E/DX2                !
 ! R10   R(5,6)                  1.3559         estimate D2E/DX2                !
 ! R11   R(5,10)                 1.07           estimate D2E/DX2                !
 ! R12   R(6,12)                 1.54           estimate D2E/DX2                !
 ! R13   R(12,13)                1.2584         estimate D2E/DX2                !
 ! R14   R(12,14)                1.43           estimate D2E/DX2                !
 ! R15   R(14,15)                0.96           estimate D2E/DX2                !
 ! A1    A(2,1,6)              122.5798         estimate D2E/DX2                !
 ! A2    A(2,1,7)              118.7101         estimate D2E/DX2                !
 ! A3    A(6,1,7)              118.7101         estimate D2E/DX2                !
 ! A4    A(1,2,3)              121.3051         estimate D2E/DX2                !
 ! A5    A(1,2,8)              119.3475         estimate D2E/DX2                !
 ! A6    A(3,2,8)              119.3475         estimate D2E/DX2                !
 ! A7    A(2,3,4)              118.7662         estimate D2E/DX2                !
 ! A8    A(2,3,9)              120.6169         estimate D2E/DX2                !
 ! A9    A(4,3,9)              120.6169         estimate D2E/DX2                !
 ! A10   A(3,4,5)              117.2777         estimate D2E/DX2                !
 ! A11   A(3,4,11)             121.3612         estimate D2E/DX2                !
 ! A12   A(5,4,11)             121.3612         estimate D2E/DX2                !
 ! A13   A(4,5,6)              118.7662         estimate D2E/DX2                !
 ! A14   A(4,5,10)             120.6169         estimate D2E/DX2                !
 ! A15   A(6,5,10)             120.6169         estimate D2E/DX2                !
 ! A16   A(1,6,5)              121.3051         estimate D2E/DX2                !
 ! A17   A(1,6,12)             119.3475         estimate D2E/DX2                !
 ! A18   A(5,6,12)             119.3475         estimate D2E/DX2                !
 ! A19   A(6,12,13)            120.0            estimate D2E/DX2                !
 ! A20   A(6,12,14)            120.0            estimate D2E/DX2                !
 ! A21   A(13,12,14)           120.0            estimate D2E/DX2                !
 ! A22   A(12,14,15)           109.4712         estimate D2E/DX2                !
 ! D1    D(6,1,2,3)             -0.0002         estimate D2E/DX2                !
 ! D2    D(6,1,2,8)            179.9998         estimate D2E/DX2                !
 ! D3    D(7,1,2,3)            179.9998         estimate D2E/DX2                !
 ! D4    D(7,1,2,8)             -0.0002         estimate D2E/DX2                !
 ! D5    D(2,1,6,5)              0.0002         estimate D2E/DX2                !
 ! D6    D(2,1,6,12)          -179.9998         estimate D2E/DX2                !
 ! D7    D(7,1,6,5)           -179.9998         estimate D2E/DX2                !
 ! D8    D(7,1,6,12)             0.0002         estimate D2E/DX2                !
 ! D9    D(1,2,3,4)              0.0001         estimate D2E/DX2                !
 ! D10   D(1,2,3,9)           -179.9999         estimate D2E/DX2                !
 ! D11   D(8,2,3,4)           -179.9999         estimate D2E/DX2                !
 ! D12   D(8,2,3,9)              0.0001         estimate D2E/DX2                !
 ! D13   D(2,3,4,5)             -0.0001         estimate D2E/DX2                !
 ! D14   D(2,3,4,11)          -179.9998         estimate D2E/DX2                !
 ! D15   D(9,3,4,5)            180.0            estimate D2E/DX2                !
 ! D16   D(9,3,4,11)             0.0002         estimate D2E/DX2                !
 ! D17   D(3,4,5,6)              0.0            estimate D2E/DX2                !
 ! D18   D(3,4,5,10)          -179.9999         estimate D2E/DX2                !
 ! D19   D(11,4,5,6)           179.9998         estimate D2E/DX2                !
 ! D20   D(11,4,5,10)           -0.0001         estimate D2E/DX2                !
 ! D21   D(4,5,6,1)             -0.0001         estimate D2E/DX2                !
 ! D22   D(4,5,6,12)           179.9999         estimate D2E/DX2                !
 ! D23   D(10,5,6,1)           179.9999         estimate D2E/DX2                !
 ! D24   D(10,5,6,12)           -0.0002         estimate D2E/DX2                !
 ! D25   D(1,6,12,13)          180.0            estimate D2E/DX2                !
 ! D26   D(1,6,12,14)            0.0            estimate D2E/DX2                !
 ! D27   D(5,6,12,13)            0.0            estimate D2E/DX2                !
 ! D28   D(5,6,12,14)         -180.0            estimate D2E/DX2                !
 ! D29   D(6,12,14,15)        -150.0            estimate D2E/DX2                !
 ! D30   D(13,12,14,15)         30.0            estimate D2E/DX2                !
 --------------------------------------------------------------------------------
 Trust Radius=3.00D-01 FncErr=1.00D-07 GrdErr=1.00D-06 EigMax=2.50D+02 EigMin=1.00D-04
 Number of steps in this run=     77 maximum allowed number of steps=    100.
 GradGradGradGradGradGradGradGradGradGradGradGradGradGradGradGradGradGrad

 Leave Link  103 at Mon Jan 20 14:20:45 2025, MaxMem=   104857600 cpu:               0.0 elap:               0.0
 (Enter /sw/cluster/pub/apps//g16/l202.exe)
                          Input orientation:                          
 ---------------------------------------------------------------------
 Center     Atomic      Atomic             Coordinates (Angstroms)
 Number     Number       Type             X           Y           Z
 ---------------------------------------------------------------------
      1          6           0        0.043129   -1.750088    0.016145
      2          6           0        1.265696   -1.037180   -0.021599
      3          6           0        1.290777    0.318505   -0.029721
      4          6           0       -0.032604    1.077705    0.002752
      5          6           0       -1.313462    0.249102    0.042746
      6          6           0       -1.215854   -1.103313    0.047452
      7          1           0        0.071774   -2.819693    0.021209
      8          1           0        2.188160   -1.578892   -0.044164
      9          1           0        2.221180    0.846169   -0.058365
     10          1           0       -2.270781    0.726459    0.066628
     11          8           0       -0.066294    2.335640   -0.003210
     12          6           0       -2.499886   -1.952574    0.087649
     13          8           0       -3.625415   -1.390467    0.115726
     14          8           0       -2.413190   -3.379934    0.093070
     15          1           0       -3.188407   -3.749241   -0.336176
 ---------------------------------------------------------------------
                    Distance matrix (angstroms):
                    1          2          3          4          5
     1  C    0.000000
     2  C    1.415746   0.000000
     3  C    2.416155   1.355941   0.000000
     4  C    2.828839   2.481716   1.526033   0.000000
     5  C    2.416155   2.882831   2.606171   1.526033   0.000000
     6  C    1.415746   2.483391   2.882831   2.481716   1.355941
     7  H    1.070000   2.145842   3.367023   3.898839   3.367023
     8  H    2.152697   1.070000   2.098956   3.462875   3.951008
     9  H    3.389692   2.112180   1.070000   2.266470   3.586141
    10  H    3.389692   3.952831   3.586141   2.266470   1.070000
    11  O    4.087239   3.626354   2.431291   1.258400   2.431291
    12  C    2.552065   3.876789   4.420486   3.908616   2.501399
    13  O    3.687473   4.905777   5.206792   4.360381   2.835250
    14  O    2.948867   4.363010   5.235733   5.054294   3.792339
    15  H    3.816223   5.224296   6.058346   5.776969   4.432352
                    6          7          8          9         10
     6  C    0.000000
     7  H    2.145841   0.000000
     8  H    3.438296   2.454169   0.000000
     9  H    3.952831   4.250273   2.425327   0.000000
    10  H    2.112180   4.250273   5.020863   4.495294   0.000000
    11  O    3.626354   5.157239   4.517499   2.730220   2.730220
    12  C    1.540000   2.714727   4.704762   5.490241   2.688894
    13  O    2.427572   3.964951   5.818825   6.262230   2.513726
    14  O    2.572683   2.548349   4.943178   6.273776   4.108946
    15  H    3.322510   3.408895   5.805441   7.103422   4.586521
                   11         12         13         14         15
    11  O    0.000000
    12  C    4.931471   0.000000
    13  O    5.154159   1.258400   0.000000
    14  O    6.179399   1.430000   2.329803   0.000000
    15  H    6.847206   1.970203   2.441108   0.960000   0.000000
 Symmetry turned off by external request.
 Stoichiometry    C7H5O3(1+)
 Framework group  C1[X(C7H5O3)]
 Deg. of freedom    39
 Full point group                 C1      NOp   1
 Rotational constants (GHZ):           2.6976157           0.9018202           0.6762345
 Leave Link  202 at Mon Jan 20 14:20:45 2025, MaxMem=   104857600 cpu:               0.0 elap:               0.0
 (Enter /sw/cluster/pub/apps//g16/l301.exe)
 Standard basis: def2TZVP (5D, 7F)
 Ernie: Thresh=  0.10000D-02 Tol=  0.10000D-05 Strict=F.
   340 basis functions,   550 primitive gaussians,   390 cartesian basis functions
    35 alpha electrons       35 beta electrons
       nuclear repulsion energy       466.6060103846 Hartrees.
 IExCor=  402 DFT=T Ex+Corr=B3LYP ExCW=0 ScaHFX=  0.200000
 ScaDFX=  0.800000  0.720000  1.000000  0.810000 ScalE2=  1.000000  1.000000
 IRadAn=      5 IRanWt=     -1 IRanGd=            0 ICorTp=0 IEmpDi=  4
 NAtoms=   15 NActive=   15 NUniq=   15 SFac= 1.00D+00 NAtFMM=   60 NAOKFM=F Big=F
 Integral buffers will be    131072 words long.
 Raffenetti 2 integral format.
 Two-electron integral symmetry is turned off.
 Leave Link  301 at Mon Jan 20 14:20:45 2025, MaxMem=   104857600 cpu:               0.0 elap:               0.0
 (Enter /sw/cluster/pub/apps//g16/l302.exe)
 NPDir=0 NMtPBC=     1 NCelOv=     1 NCel=       1 NClECP=     1 NCelD=      1
         NCelK=      1 NCelE2=     1 NClLst=     1 CellRange=     0.0.
 One-electron integrals computed using PRISM.
   1 Symmetry operations used in ECPInt.
 ECPInt:  NShTT=    8515 NPrTT=   26800 LenC2=    8109 LenP2D=   19730.
 LDataN:  DoStor=T MaxTD1= 6 Len=  172
 NBasis=   340 RedAO= T EigKep=  1.22D-05  NBF=   340
 NBsUse=   340 1.00D-06 EigRej= -1.00D+00 NBFU=   340
 Precomputing XC quadrature grid using
 IXCGrd= 4 IRadAn=           5 IRanWt=          -1 IRanGd=           0 AccXCQ= 0.00D+00.
 Generated NRdTot=       0 NPtTot=           0 NUsed=           0 NTot=          32
 NSgBfM=   388   388   388   388   388 MxSgAt=    15 MxSgA2=    15.
 Leave Link  302 at Mon Jan 20 14:20:45 2025, MaxMem=   104857600 cpu:               0.2 elap:               0.2
 (Enter /sw/cluster/pub/apps//g16/l303.exe)
 DipDrv:  MaxL=1.
 Leave Link  303 at Mon Jan 20 14:20:45 2025, MaxMem=   104857600 cpu:               0.0 elap:               0.0
 (Enter /sw/cluster/pub/apps//g16/l401.exe)
 ExpMin= 9.52D-02 ExpMax= 2.70D+04 ExpMxC= 9.22D+02 IAcc=3 IRadAn=         5 AccDes= 0.00D+00
 Harris functional with IExCor=  402 and IRadAn=       5 diagonalized for initial guess.
 HarFok:  IExCor=  402 AccDes= 0.00D+00 IRadAn=         5 IDoV= 1 UseB2=F ITyADJ=14
 ICtDFT=  3500011 ScaDFX=  1.000000  1.000000  1.000000  1.000000
 FoFCou: FMM=F IPFlag=           0 FMFlag=      100000 FMFlg1=           0
         NFxFlg=           0 DoJE=T BraDBF=F KetDBF=T FulRan=T
         wScrn=  0.000000 ICntrl=       500 IOpCl=  0 I1Cent=   200000004 NGrid=           0
         NMat0=    1 NMatS0=      1 NMatT0=    0 NMatD0=    1 NMtDS0=    0 NMtDT0=    0
 Symmetry not used in FoFCou.
 Harris En= -495.320379801137    
 JPrj=0 DoOrth=F DoCkMO=F.
 Leave Link  401 at Mon Jan 20 14:20:47 2025, MaxMem=   104857600 cpu:               2.5 elap:               2.5
 (Enter /sw/cluster/pub/apps//g16/l502.exe)
 Two-electron integral symmetry not used.
 Closed shell SCF:
 Using DIIS extrapolation, IDIIS=  1040.
 NGot=   104857600 LenX=   104548503 LenY=   104395962
 Requested convergence on RMS density matrix=1.00D-08 within 128 cycles.
 Requested convergence on MAX density matrix=1.00D-06.
 Requested convergence on             energy=1.00D-06.
 No special actions if energy rises.
 Fock matrices will be formed incrementally for  20 cycles.
 Integral accuracy reduced to 1.0D-05 until final iterations.

 Cycle   1  Pass 0  IDiag  1:
 FoFJK:  IHMeth= 1 ICntrl=       0 DoSepK=F KAlg= 0 I1Cent=           0 FoldK=F
 IRaf= 910000000 NMat=       1 IRICut=       1 DoRegI=T DoRafI=F ISym2E= 0 IDoP0=0 IntGTp=1.
 FoFCou: FMM=F IPFlag=           0 FMFlag=      100000 FMFlg1=           0
         NFxFlg=           0 DoJE=F BraDBF=F KetDBF=F FulRan=T
         wScrn=  0.000000 ICntrl=         0 IOpCl=  0 I1Cent=           0 NGrid=           0
         NMat0=    1 NMatS0=      1 NMatT0=    0 NMatD0=    1 NMtDS0=    0 NMtDT0=    0
 Symmetry not used in FoFCou.
 E= -495.025707320002    
 DIIS: error= 2.15D-02 at cycle   1 NSaved=   1.
 NSaved= 1 IEnMin= 1 EnMin= -495.025707320002     IErMin= 1 ErrMin= 2.15D-02
 ErrMax= 2.15D-02  0.00D+00 EMaxC= 1.00D-01 BMatC= 3.10D-01 BMatP= 3.10D-01
 IDIUse=3 WtCom= 7.85D-01 WtEn= 2.15D-01
 Coeff-Com:  0.100D+01
 Coeff-En:   0.100D+01
 Coeff:      0.100D+01
 Gap=     0.014 Goal=   None    Shift=    0.000
 GapD=    0.014 DampG=0.250 DampE=0.500 DampFc=0.2500 IDamp=-1.
 Damping current iteration by 2.50D-01
 RMSDP=5.21D-03 MaxDP=4.05D-01              OVMax= 9.32D-01

 Cycle   2  Pass 0  IDiag  1:
 RMSU=  1.30D-03    CP:  9.96D-01
 E= -495.024354247744     Delta-E=        0.001353072259 Rises=F Damp=T
 DIIS: error= 1.02D-02 at cycle   2 NSaved=   2.
 NSaved= 2 IEnMin= 1 EnMin= -495.025707320002     IErMin= 2 ErrMin= 1.02D-02
 ErrMax= 1.02D-02  0.00D+00 EMaxC= 1.00D-01 BMatC= 6.70D-02 BMatP= 3.10D-01
 IDIUse=3 WtCom= 8.98D-01 WtEn= 1.02D-01
 Coeff-Com: -0.467D-02 0.100D+01
 Coeff-En:   0.504D+00 0.496D+00
 Coeff:      0.471D-01 0.953D+00
 Gap=    -0.226 Goal=   None    Shift=    0.000
 RMSDP=2.08D-03 MaxDP=8.43D-02 DE= 1.35D-03 OVMax= 5.55D-01

 Cycle   3  Pass 0  IDiag  1:
 RMSU=  1.97D-03    CP:  9.99D-01  1.51D+00
 E= -494.998425878292     Delta-E=        0.025928369452 Rises=F Damp=F
 DIIS: error= 2.23D-02 at cycle   3 NSaved=   3.
 NSaved= 3 IEnMin= 1 EnMin= -495.025707320002     IErMin= 2 ErrMin= 1.02D-02
 ErrMax= 2.23D-02  0.00D+00 EMaxC= 1.00D-01 BMatC= 2.72D-01 BMatP= 6.70D-02
 IDIUse=2 WtCom= 0.00D+00 WtEn= 1.00D+00
 EnCoef did     1 forward-backward iterations
 Coeff-En:   0.171D+00 0.426D+00 0.403D+00
 Coeff:      0.171D+00 0.426D+00 0.403D+00
 Gap=     0.111 Goal=   None    Shift=    0.000
 RMSDP=2.99D-03 MaxDP=2.02D-01 DE= 2.59D-02 OVMax= 9.96D-01

 Cycle   4  Pass 0  IDiag  1:
 RMSU=  1.54D-03    CP:  9.59D-01  1.71D+00 -2.85D-01
 E= -493.759976167601     Delta-E=        1.238449710692 Rises=F Damp=F
 DIIS: error= 6.42D-02 at cycle   4 NSaved=   4.
 NSaved= 4 IEnMin= 1 EnMin= -495.025707320002     IErMin= 2 ErrMin= 1.02D-02
 ErrMax= 6.42D-02  0.00D+00 EMaxC= 1.00D-01 BMatC= 9.30D-01 BMatP= 6.70D-02
 IDIUse=2 WtCom= 0.00D+00 WtEn= 1.00D+00
 EnCoef did     2 forward-backward iterations
 Coeff-En:   0.284D+00 0.000D+00 0.528D+00 0.188D+00
 Coeff:      0.284D+00 0.000D+00 0.528D+00 0.188D+00
 Gap=    -0.044 Goal=   None    Shift=    0.000
 RMSDP=2.42D-03 MaxDP=1.56D-01 DE= 1.24D+00 OVMax= 9.98D-01

 Problem detected with inexpensive integrals.
 Switching to full accuracy and repeating last cycle.
 Cycle   5  Pass 1  IDiag  1:
 E= -493.759981913542     Delta-E=       -0.000005745941 Rises=F Damp=F
 DIIS: error= 6.42D-02 at cycle   1 NSaved=   1.
 NSaved= 1 IEnMin= 1 EnMin= -493.759981913542     IErMin= 1 ErrMin= 6.42D-02
 ErrMax= 6.42D-02  0.00D+00 EMaxC= 1.00D-01 BMatC= 9.30D-01 BMatP= 9.30D-01
 IDIUse=3 WtCom= 3.58D-01 WtEn= 6.42D-01
 Coeff-Com:  0.100D+01
 Coeff-En:   0.100D+01
 Coeff:      0.100D+01
 Gap=    -1.179 Goal=   None    Shift=    0.000
 GapD=   -1.179 DampG=0.250 DampE=0.500 DampFc=0.2500 IDamp=-1.
 Damping current iteration by 2.50D-01
 RMSDP=5.89D-02 MaxDP=5.61D+00 DE=-5.75D-06 OVMax= 9.55D-01

 Cycle   6  Pass 1  IDiag  1:
 RMSU=  1.47D-02    CP:  1.09D+00
 E= -493.302508351345     Delta-E=        0.457473562197 Rises=F Damp=T
 DIIS: error= 2.38D-02 at cycle   2 NSaved=   2.
 NSaved= 2 IEnMin= 1 EnMin= -493.759981913542     IErMin= 2 ErrMin= 2.38D-02
 ErrMax= 2.38D-02  0.00D+00 EMaxC= 1.00D-01 BMatC= 2.78D-01 BMatP= 9.30D-01
 IDIUse=3 WtCom= 7.62D-01 WtEn= 2.38D-01
 Coeff-Com:  0.224D+00 0.776D+00
 Coeff-En:   0.610D+00 0.390D+00
 Coeff:      0.316D+00 0.684D+00
 Gap=    -0.360 Goal=   None    Shift=    0.000
 RMSDP=1.51D-02 MaxDP=1.36D+00 DE= 4.57D-01 OVMax= 9.86D-01

 Cycle   7  Pass 1  IDiag  1:
 RMSU=  3.90D-03    CP:  9.20D-01  1.33D-02
 E= -492.588992535821     Delta-E=        0.713515815524 Rises=F Damp=F
 DIIS: error= 5.78D-02 at cycle   3 NSaved=   3.
 NSaved= 3 IEnMin= 1 EnMin= -493.759981913542     IErMin= 2 ErrMin= 2.38D-02
 ErrMax= 5.78D-02  0.00D+00 EMaxC= 1.00D-01 BMatC= 2.66D+00 BMatP= 2.78D-01
 IDIUse=2 WtCom= 0.00D+00 WtEn= 1.00D+00
 EnCoef did     2 forward-backward iterations
 Coeff-En:   0.461D+00 0.254D+00 0.285D+00
 Coeff:      0.461D+00 0.254D+00 0.285D+00
 Gap=    -0.212 Goal=   None    Shift=    0.000
 RMSDP=6.73D-03 MaxDP=2.70D-01 DE= 7.14D-01 OVMax= 7.50D-01

 Cycle   8  Pass 1  IDiag  1:
 RMSU=  5.95D-03    CP:  9.41D-01  6.25D-02  2.15D-01
 E= -490.705386984387     Delta-E=        1.883605551434 Rises=F Damp=F
 DIIS: error= 1.90D-01 at cycle   4 NSaved=   4.
 NSaved= 4 IEnMin= 1 EnMin= -493.759981913542     IErMin= 2 ErrMin= 2.38D-02
 ErrMax= 1.90D-01  0.00D+00 EMaxC= 1.00D-01 BMatC= 2.87D+00 BMatP= 2.78D-01
 IDIUse=2 WtCom= 0.00D+00 WtEn= 1.00D+00
 EnCoef did   100 forward-backward iterations
 Coeff-En:   0.502D+00 0.583D-02 0.237D+00 0.256D+00
 Coeff:      0.502D+00 0.583D-02 0.237D+00 0.256D+00
 Gap=     0.290 Goal=   None    Shift=    0.000
 RMSDP=5.65D-03 MaxDP=2.40D-01 DE= 1.88D+00 OVMax= 8.29D-01

 Cycle   9  Pass 1  IDiag  1:
 RMSU=  2.13D-03    CP:  9.45D-01 -3.04D-03  4.33D-01  1.48D-01
 E= -494.831250134927     Delta-E=       -4.125863150539 Rises=F Damp=F
 DIIS: error= 3.03D-02 at cycle   5 NSaved=   5.
 NSaved= 5 IEnMin= 5 EnMin= -494.831250134927     IErMin= 2 ErrMin= 2.38D-02
 ErrMax= 3.03D-02  0.00D+00 EMaxC= 1.00D-01 BMatC= 4.24D-01 BMatP= 2.78D-01
 IDIUse=2 WtCom= 0.00D+00 WtEn= 1.00D+00
 EnCoef did     2 forward-backward iterations
 Coeff-En:   0.290D+00 0.000D+00 0.000D+00 0.338D-01 0.676D+00
 Coeff:      0.290D+00 0.000D+00 0.000D+00 0.338D-01 0.676D+00
 Gap=     0.144 Goal=   None    Shift=    0.000
 RMSDP=4.48D-03 MaxDP=2.47D-01 DE=-4.13D+00 OVMax= 8.57D-01

 Cycle  10  Pass 1  IDiag  1:
 RMSU=  2.85D-03    CP:  9.75D-01  3.57D-02  1.82D-01  4.79D-01 -2.16D-01
 E= -493.144926144712     Delta-E=        1.686323990214 Rises=F Damp=F
 DIIS: error= 9.34D-02 at cycle   6 NSaved=   6.
 NSaved= 6 IEnMin= 5 EnMin= -494.831250134927     IErMin= 2 ErrMin= 2.38D-02
 ErrMax= 9.34D-02  0.00D+00 EMaxC= 1.00D-01 BMatC= 1.68D+00 BMatP= 2.78D-01
 IDIUse=2 WtCom= 0.00D+00 WtEn= 1.00D+00
 EnCoef did     4 forward-backward iterations
 Coeff-En:   0.233D+00 0.000D+00 0.000D+00 0.000D+00 0.622D+00 0.145D+00
 Coeff:      0.233D+00 0.000D+00 0.000D+00 0.000D+00 0.622D+00 0.145D+00
 Gap=    -0.039 Goal=   None    Shift=    0.000
 RMSDP=3.69D-03 MaxDP=2.14D-01 DE= 1.69D+00 OVMax= 9.85D-01

 Cycle  11  Pass 1  IDiag  1:
 RMSU=  1.57D-03    CP:  9.82D-01  1.62D-02  2.20D-01  1.40D-01  5.81D-01
                    CP:  2.86D-01
 E= -495.178787091740     Delta-E=       -2.033860947027 Rises=F Damp=F
 DIIS: error= 1.77D-02 at cycle   7 NSaved=   7.
 NSaved= 7 IEnMin= 7 EnMin= -495.178787091740     IErMin= 7 ErrMin= 1.77D-02
 ErrMax= 1.77D-02  0.00D+00 EMaxC= 1.00D-01 BMatC= 8.89D-02 BMatP= 2.78D-01
 IDIUse=3 WtCom= 8.23D-01 WtEn= 1.77D-01
 EnCoef did     3 forward-backward iterations
 Coeff-Com:  0.137D+00-0.497D-02-0.250D-01-0.178D-01 0.320D+00 0.161D-01
 Coeff-Com:  0.575D+00
 Coeff-En:   0.666D-01 0.000D+00 0.000D+00 0.000D+00 0.134D+00 0.000D+00
 Coeff-En:   0.799D+00
 Coeff:      0.124D+00-0.409D-02-0.206D-01-0.146D-01 0.287D+00 0.133D-01
 Coeff:      0.615D+00
 Gap=     0.087 Goal=   None    Shift=    0.000
 RMSDP=9.21D-04 MaxDP=5.13D-02 DE=-2.03D+00 OVMax= 7.07D-02

 Cycle  12  Pass 1  IDiag  1:
 RMSU=  6.67D-04    CP:  9.66D-01  1.79D-03  2.57D-01  1.08D-01  6.61D-01
                    CP:  1.93D-01  7.32D-01
 E= -495.236323564347     Delta-E=       -0.057536472608 Rises=F Damp=F
 DIIS: error= 5.21D-03 at cycle   8 NSaved=   8.
 NSaved= 8 IEnMin= 8 EnMin= -495.236323564347     IErMin= 8 ErrMin= 5.21D-03
 ErrMax= 5.21D-03  0.00D+00 EMaxC= 1.00D-01 BMatC= 1.64D-02 BMatP= 8.89D-02
 IDIUse=3 WtCom= 9.48D-01 WtEn= 5.21D-02
 EnCoef did     1 forward-backward iterations
 Coeff-Com:  0.591D-01 0.231D-01-0.714D-02-0.193D-01 0.468D-01-0.668D-02
 Coeff-Com:  0.288D+00 0.616D+00
 Coeff-En:   0.559D-02 0.000D+00 0.000D+00 0.000D+00 0.000D+00 0.000D+00
 Coeff-En:   0.119D+00 0.875D+00
 Coeff:      0.563D-01 0.219D-01-0.676D-02-0.183D-01 0.444D-01-0.633D-02
 Coeff:      0.279D+00 0.630D+00
 Gap=     0.073 Goal=   None    Shift=    0.000
 RMSDP=3.29D-04 MaxDP=1.37D-02 DE=-5.75D-02 OVMax= 4.57D-02

 Cycle  13  Pass 1  IDiag  1:
 RMSU=  2.58D-04    CP:  9.69D-01  5.56D-03  2.50D-01  9.75D-02  6.27D-01
                    CP:  2.27D-01  7.98D-01  8.64D-01
 E= -495.246598089369     Delta-E=       -0.010274525022 Rises=F Damp=F
 DIIS: error= 4.10D-03 at cycle   9 NSaved=   9.
 NSaved= 9 IEnMin= 9 EnMin= -495.246598089369     IErMin= 9 ErrMin= 4.10D-03
 ErrMax= 4.10D-03  0.00D+00 EMaxC= 1.00D-01 BMatC= 4.29D-03 BMatP= 1.64D-02
 IDIUse=3 WtCom= 9.59D-01 WtEn= 4.10D-02
 Coeff-Com:  0.247D-01 0.516D-02-0.801D-03-0.775D-02-0.518D-01-0.279D-02
 Coeff-Com: -0.105D-01 0.378D+00 0.666D+00
 Coeff-En:   0.000D+00 0.000D+00 0.000D+00 0.000D+00 0.000D+00 0.000D+00
 Coeff-En:   0.000D+00 0.147D+00 0.853D+00
 Coeff:      0.237D-01 0.495D-02-0.768D-03-0.743D-02-0.496D-01-0.267D-02
 Coeff:     -0.101D-01 0.369D+00 0.673D+00
 Gap=     0.068 Goal=   None    Shift=    0.000
 RMSDP=1.76D-04 MaxDP=7.96D-03 DE=-1.03D-02 OVMax= 2.83D-02

 Cycle  14  Pass 1  IDiag  1:
 RMSU=  1.23D-04    CP:  9.68D-01  6.10D-03  2.48D-01  9.02D-02  6.21D-01
                    CP:  2.28D-01  7.90D-01  1.02D+00  7.96D-01
 E= -495.250212685645     Delta-E=       -0.003614596276 Rises=F Damp=F
 DIIS: error= 2.42D-03 at cycle  10 NSaved=  10.
 NSaved=10 IEnMin=10 EnMin= -495.250212685645     IErMin=10 ErrMin= 2.42D-03
 ErrMax= 2.42D-03  0.00D+00 EMaxC= 1.00D-01 BMatC= 1.07D-03 BMatP= 4.29D-03
 IDIUse=3 WtCom= 9.76D-01 WtEn= 2.42D-02
 Coeff-Com:  0.107D-01-0.863D-02-0.188D-03-0.246D-02-0.470D-01 0.768D-03
 Coeff-Com: -0.687D-01 0.132D+00 0.455D+00 0.529D+00
 Coeff-En:   0.000D+00 0.000D+00 0.000D+00 0.000D+00 0.000D+00 0.000D+00
 Coeff-En:   0.000D+00 0.000D+00 0.489D-01 0.951D+00
 Coeff:      0.104D-01-0.842D-02-0.183D-03-0.240D-02-0.458D-01 0.749D-03
 Coeff:     -0.671D-01 0.128D+00 0.445D+00 0.539D+00
 Gap=     0.064 Goal=   None    Shift=    0.000
 RMSDP=7.60D-05 MaxDP=3.97D-03 DE=-3.61D-03 OVMax= 1.28D-02

 Cycle  15  Pass 1  IDiag  1:
 RMSU=  4.84D-05    CP:  9.69D-01  6.28D-03  2.44D-01  8.91D-02  6.14D-01
                    CP:  2.30D-01  8.03D-01  1.04D+00  9.33D-01  7.49D-01
 E= -495.251280284154     Delta-E=       -0.001067598509 Rises=F Damp=F
 DIIS: error= 5.07D-04 at cycle  11 NSaved=  11.
 NSaved=11 IEnMin=11 EnMin= -495.251280284154     IErMin=11 ErrMin= 5.07D-04
 ErrMax= 5.07D-04  0.00D+00 EMaxC= 1.00D-01 BMatC= 1.29D-04 BMatP= 1.07D-03
 IDIUse=3 WtCom= 9.95D-01 WtEn= 5.07D-03
 Coeff-Com:  0.288D-02-0.621D-02 0.101D-02-0.904D-03-0.995D-02 0.101D-02
 Coeff-Com: -0.304D-01-0.249D-01 0.353D-01 0.228D+00 0.804D+00
 Coeff-En:   0.000D+00 0.000D+00 0.000D+00 0.000D+00 0.000D+00 0.000D+00
 Coeff-En:   0.000D+00 0.000D+00 0.000D+00 0.000D+00 0.100D+01
 Coeff:      0.287D-02-0.618D-02 0.101D-02-0.899D-03-0.990D-02 0.101D-02
 Coeff:     -0.302D-01-0.248D-01 0.351D-01 0.227D+00 0.805D+00
 Gap=     0.062 Goal=   None    Shift=    0.000
 RMSDP=4.28D-05 MaxDP=1.65D-03 DE=-1.07D-03 OVMax= 3.28D-03

 Cycle  16  Pass 1  IDiag  1:
 RMSU=  2.66D-05    CP:  9.69D-01  6.31D-03  2.44D-01  8.72D-02  6.07D-01
                    CP:  2.32D-01  8.08D-01  1.07D+00  9.77D-01  8.41D-01
                    CP:  8.81D-01
 E= -495.251368053572     Delta-E=       -0.000087769418 Rises=F Damp=F
 DIIS: error= 6.15D-04 at cycle  12 NSaved=  12.
 NSaved=12 IEnMin=12 EnMin= -495.251368053572     IErMin=11 ErrMin= 5.07D-04
 ErrMax= 6.15D-04  0.00D+00 EMaxC= 1.00D-01 BMatC= 3.98D-05 BMatP= 1.29D-04
 IDIUse=3 WtCom= 9.95D-01 WtEn= 5.07D-03
 Coeff-Com:  0.897D-03-0.378D-02 0.112D-02-0.906D-03 0.150D-02 0.956D-03
 Coeff-Com: -0.109D-01-0.334D-01-0.407D-01 0.586D-01 0.479D+00 0.548D+00
 Coeff-En:   0.000D+00 0.000D+00 0.000D+00 0.000D+00 0.000D+00 0.000D+00
 Coeff-En:   0.000D+00 0.000D+00 0.000D+00 0.000D+00 0.000D+00 0.100D+01
 Coeff:      0.893D-03-0.376D-02 0.111D-02-0.902D-03 0.149D-02 0.951D-03
 Coeff:     -0.108D-01-0.332D-01-0.405D-01 0.583D-01 0.476D+00 0.550D+00
 Gap=     0.061 Goal=   None    Shift=    0.000
 RMSDP=1.51D-05 MaxDP=6.89D-04 DE=-8.78D-05 OVMax= 3.40D-03

 Cycle  17  Pass 1  IDiag  1:
 RMSU=  1.03D-05    CP:  9.69D-01  6.39D-03  2.44D-01  8.65D-02  6.07D-01
                    CP:  2.32D-01  8.08D-01  1.08D+00  9.78D-01  8.75D-01
                    CP:  9.89D-01  7.97D-01
 E= -495.251408166059     Delta-E=       -0.000040112487 Rises=F Damp=F
 DIIS: error= 2.16D-04 at cycle  13 NSaved=  13.
 NSaved=13 IEnMin=13 EnMin= -495.251408166059     IErMin=13 ErrMin= 2.16D-04
 ErrMax= 2.16D-04  0.00D+00 EMaxC= 1.00D-01 BMatC= 1.27D-05 BMatP= 3.98D-05
 IDIUse=3 WtCom= 9.98D-01 WtEn= 2.16D-03
 Coeff-Com:  0.219D-03-0.215D-02 0.786D-03-0.703D-03 0.298D-02 0.652D-03
 Coeff-Com: -0.394D-02-0.139D-01-0.176D-01-0.301D-02 0.763D-01 0.308D+00
 Coeff-Com:  0.652D+00
 Coeff-En:   0.000D+00 0.000D+00 0.000D+00 0.000D+00 0.000D+00 0.000D+00
 Coeff-En:   0.000D+00 0.000D+00 0.000D+00 0.000D+00 0.000D+00 0.000D+00
 Coeff-En:   0.100D+01
 Coeff:      0.218D-03-0.215D-02 0.784D-03-0.701D-03 0.298D-02 0.651D-03
 Coeff:     -0.393D-02-0.139D-01-0.176D-01-0.300D-02 0.762D-01 0.307D+00
 Coeff:      0.653D+00
 Gap=     0.060 Goal=   None    Shift=    0.000
 RMSDP=8.52D-06 MaxDP=3.60D-04 DE=-4.01D-05 OVMax= 1.37D-03

 Cycle  18  Pass 1  IDiag  1:
 RMSU=  4.61D-06    CP:  9.69D-01  6.43D-03  2.45D-01  8.59D-02  6.07D-01
                    CP:  2.33D-01  8.07D-01  1.08D+00  9.92D-01  8.94D-01
                    CP:  1.01D+00  8.69D-01  7.48D-01
 E= -495.251417193774     Delta-E=       -0.000009027716 Rises=F Damp=F
 DIIS: error= 1.67D-04 at cycle  14 NSaved=  14.
 NSaved=14 IEnMin=14 EnMin= -495.251417193774     IErMin=14 ErrMin= 1.67D-04
 ErrMax= 1.67D-04  0.00D+00 EMaxC= 1.00D-01 BMatC= 3.36D-06 BMatP= 1.27D-05
 IDIUse=3 WtCom= 9.98D-01 WtEn= 1.67D-03
 Coeff-Com: -0.918D-04-0.733D-03 0.294D-03-0.300D-03 0.141D-02 0.260D-03
 Coeff-Com: -0.727D-03 0.288D-02 0.798D-02-0.161D-01-0.133D+00-0.178D-01
 Coeff-Com:  0.343D+00 0.813D+00
 Coeff-En:   0.000D+00 0.000D+00 0.000D+00 0.000D+00 0.000D+00 0.000D+00
 Coeff-En:   0.000D+00 0.000D+00 0.000D+00 0.000D+00 0.000D+00 0.000D+00
 Coeff-En:   0.000D+00 0.100D+01
 Coeff:     -0.916D-04-0.731D-03 0.294D-03-0.300D-03 0.141D-02 0.259D-03
 Coeff:     -0.726D-03 0.288D-02 0.796D-02-0.161D-01-0.133D+00-0.178D-01
 Coeff:      0.343D+00 0.813D+00
 Gap=     0.060 Goal=   None    Shift=    0.000
 RMSDP=6.06D-06 MaxDP=2.29D-04 DE=-9.03D-06 OVMax= 8.20D-04

 Cycle  19  Pass 1  IDiag  1:
 RMSU=  2.76D-06    CP:  9.69D-01  6.44D-03  2.45D-01  8.55D-02  6.06D-01
                    CP:  2.33D-01  8.06D-01  1.09D+00  9.99D-01  9.08D-01
                    CP:  1.03D+00  9.18D-01  9.34D-01  9.57D-01
 E= -495.251420688188     Delta-E=       -0.000003494413 Rises=F Damp=F
 DIIS: error= 5.30D-05 at cycle  15 NSaved=  15.
 NSaved=15 IEnMin=15 EnMin= -495.251420688188     IErMin=15 ErrMin= 5.30D-05
 ErrMax= 5.30D-05  0.00D+00 EMaxC= 1.00D-01 BMatC= 4.74D-07 BMatP= 3.36D-06
 IDIUse=1 WtCom= 1.00D+00 WtEn= 0.00D+00
 Coeff-Com: -0.356D-04-0.184D-03 0.332D-05 0.695D-05-0.178D-03 0.268D-04
 Coeff-Com:  0.245D-04 0.552D-02 0.103D-01-0.308D-02-0.858D-01-0.948D-01
 Coeff-Com: -0.132D-01 0.474D+00 0.707D+00
 Coeff:     -0.356D-04-0.184D-03 0.332D-05 0.695D-05-0.178D-03 0.268D-04
 Coeff:      0.245D-04 0.552D-02 0.103D-01-0.308D-02-0.858D-01-0.948D-01
 Coeff:     -0.132D-01 0.474D+00 0.707D+00
 Gap=     0.060 Goal=   None    Shift=    0.000
 RMSDP=2.39D-06 MaxDP=9.96D-05 DE=-3.49D-06 OVMax= 2.09D-04

 Cycle  20  Pass 1  IDiag  1:
 RMSU=  1.01D-06    CP:  9.69D-01  6.42D-03  2.46D-01  8.54D-02  6.06D-01
                    CP:  2.33D-01  8.06D-01  1.09D+00  1.00D+00  9.09D-01
                    CP:  1.03D+00  9.52D-01  9.73D-01  1.10D+00  7.58D-01
 E= -495.251421138745     Delta-E=       -0.000000450558 Rises=F Damp=F
 DIIS: error= 4.67D-06 at cycle  16 NSaved=  16.
 NSaved=16 IEnMin=16 EnMin= -495.251421138745     IErMin=16 ErrMin= 4.67D-06
 ErrMax= 4.67D-06  0.00D+00 EMaxC= 1.00D-01 BMatC= 2.33D-08 BMatP= 4.74D-07
 IDIUse=1 WtCom= 1.00D+00 WtEn= 0.00D+00
 Coeff-Com: -0.842D-05 0.868D-05 0.142D-04 0.677D-06-0.241D-03 0.134D-05
 Coeff-Com:  0.749D-04 0.251D-02 0.429D-02 0.253D-03-0.267D-01-0.376D-01
 Coeff-Com: -0.194D-01 0.142D+00 0.279D+00 0.655D+00
 Coeff:     -0.842D-05 0.868D-05 0.142D-04 0.677D-06-0.241D-03 0.134D-05
 Coeff:      0.749D-04 0.251D-02 0.429D-02 0.253D-03-0.267D-01-0.376D-01
 Coeff:     -0.194D-01 0.142D+00 0.279D+00 0.655D+00
 Gap=     0.060 Goal=   None    Shift=    0.000
 RMSDP=3.94D-07 MaxDP=1.59D-05 DE=-4.51D-07 OVMax= 5.68D-05

 Cycle  21  Pass 1  IDiag  1:
 RMSU=  2.71D-07    CP:  9.69D-01  6.42D-03  2.46D-01  8.54D-02  6.06D-01
                    CP:  2.33D-01  8.06D-01  1.09D+00  1.00D+00  9.09D-01
                    CP:  1.03D+00  9.53D-01  9.83D-01  1.12D+00  7.97D-01
                    CP:  9.02D-01
 E= -495.251421155797     Delta-E=       -0.000000017052 Rises=F Damp=F
 DIIS: error= 4.60D-06 at cycle  17 NSaved=  17.
 NSaved=17 IEnMin=17 EnMin= -495.251421155797     IErMin=17 ErrMin= 4.60D-06
 ErrMax= 4.60D-06  0.00D+00 EMaxC= 1.00D-01 BMatC= 4.07D-09 BMatP= 2.33D-08
 IDIUse=1 WtCom= 1.00D+00 WtEn= 0.00D+00
 Coeff-Com: -0.152D-05-0.200D-05 0.262D-05 0.258D-05-0.781D-04 0.110D-05
 Coeff-Com:  0.974D-04 0.530D-03 0.715D-03 0.101D-03-0.363D-02-0.577D-02
 Coeff-Com: -0.299D-02 0.194D-01 0.529D-01 0.287D+00 0.652D+00
 Coeff:     -0.152D-05-0.200D-05 0.262D-05 0.258D-05-0.781D-04 0.110D-05
 Coeff:      0.974D-04 0.530D-03 0.715D-03 0.101D-03-0.363D-02-0.577D-02
 Coeff:     -0.299D-02 0.194D-01 0.529D-01 0.287D+00 0.652D+00
 Gap=     0.060 Goal=   None    Shift=    0.000
 RMSDP=1.80D-07 MaxDP=1.05D-05 DE=-1.71D-08 OVMax= 1.99D-05

 Cycle  22  Pass 1  IDiag  1:
 RMSU=  8.37D-08    CP:  9.69D-01  6.43D-03  2.46D-01  8.54D-02  6.06D-01
                    CP:  2.33D-01  8.06D-01  1.09D+00  1.00D+00  9.09D-01
                    CP:  1.03D+00  9.51D-01  9.80D-01  1.11D+00  7.97D-01
                    CP:  9.19D-01  8.29D-01
 E= -495.251421159505     Delta-E=       -0.000000003708 Rises=F Damp=F
 DIIS: error= 5.70D-07 at cycle  18 NSaved=  18.
 NSaved=18 IEnMin=18 EnMin= -495.251421159505     IErMin=18 ErrMin= 5.70D-07
 ErrMax= 5.70D-07  0.00D+00 EMaxC= 1.00D-01 BMatC= 7.78D-11 BMatP= 4.07D-09
 IDIUse=1 WtCom= 1.00D+00 WtEn= 0.00D+00
 Coeff-Com: -0.241D-06-0.663D-06-0.919D-07 0.507D-06-0.737D-05 0.191D-06
 Coeff-Com:  0.189D-04-0.168D-04-0.350D-04-0.386D-06 0.555D-03 0.104D-02
 Coeff-Com:  0.834D-03-0.292D-02-0.475D-02 0.160D-01 0.119D+00 0.870D+00
 Coeff:     -0.241D-06-0.663D-06-0.919D-07 0.507D-06-0.737D-05 0.191D-06
 Coeff:      0.189D-04-0.168D-04-0.350D-04-0.386D-06 0.555D-03 0.104D-02
 Coeff:      0.834D-03-0.292D-02-0.475D-02 0.160D-01 0.119D+00 0.870D+00
 Gap=     0.060 Goal=   None    Shift=    0.000
 RMSDP=3.56D-08 MaxDP=9.75D-07 DE=-3.71D-09 OVMax= 5.35D-06

 Cycle  23  Pass 1  IDiag  1:
 RMSU=  2.35D-08    CP:  9.69D-01  6.43D-03  2.46D-01  8.54D-02  6.06D-01
                    CP:  2.33D-01  8.06D-01  1.09D+00  1.00D+00  9.09D-01
                    CP:  1.03D+00  9.51D-01  9.80D-01  1.11D+00  7.97D-01
                    CP:  9.29D-01  8.54D-01  9.94D-01
 E= -495.251421159585     Delta-E=       -0.000000000080 Rises=F Damp=F
 DIIS: error= 1.70D-07 at cycle  19 NSaved=  19.
 NSaved=19 IEnMin=19 EnMin= -495.251421159585     IErMin=19 ErrMin= 1.70D-07
 ErrMax= 1.70D-07  0.00D+00 EMaxC= 1.00D-01 BMatC= 1.09D-11 BMatP= 7.78D-11
 IDIUse=1 WtCom= 1.00D+00 WtEn= 0.00D+00
 Coeff-Com: -0.147D-06 0.373D-06-0.608D-07-0.135D-07-0.164D-06-0.647D-07
 Coeff-Com:  0.425D-05-0.310D-04-0.450D-04-0.348D-05 0.413D-03 0.764D-03
 Coeff-Com:  0.581D-03-0.211D-02-0.475D-02-0.488D-02 0.231D-01 0.444D+00
 Coeff-Com:  0.543D+00
 Coeff:     -0.147D-06 0.373D-06-0.608D-07-0.135D-07-0.164D-06-0.647D-07
 Coeff:      0.425D-05-0.310D-04-0.450D-04-0.348D-05 0.413D-03 0.764D-03
 Coeff:      0.581D-03-0.211D-02-0.475D-02-0.488D-02 0.231D-01 0.444D+00
 Coeff:      0.543D+00
 Gap=     0.060 Goal=   None    Shift=    0.000
 RMSDP=8.77D-09 MaxDP=3.88D-07 DE=-8.00D-11 OVMax= 1.93D-06

 SCF Done:  E(RB3LYP) =  -495.251421160     A.U. after   23 cycles
            NFock= 23  Conv=0.88D-08     -V/T= 2.0058
 KE= 4.923774655482D+02 PE=-2.077634167509D+03 EE= 6.233992704169D+02
 Leave Link  502 at Mon Jan 20 14:25:58 2025, MaxMem=   104857600 cpu:             310.5 elap:             311.0
 (Enter /sw/cluster/pub/apps//g16/l601.exe)
 Copying SCF densities to generalized density rwf, IOpCl= 0 IROHF=0.

 **********************************************************************

            Population analysis using the SCF density.

 **********************************************************************

 Alpha  occ. eigenvalues --  -19.37867 -19.33980 -19.30126 -10.50972 -10.50664
 Alpha  occ. eigenvalues --  -10.47301 -10.45264 -10.44786 -10.44191 -10.42094
 Alpha  occ. eigenvalues --   -1.26284  -1.24913  -1.17385  -1.10178  -1.01425
 Alpha  occ. eigenvalues --   -0.96668  -0.87211  -0.84021  -0.79237  -0.75182
 Alpha  occ. eigenvalues --   -0.72174  -0.69892  -0.68293  -0.65924  -0.64902
 Alpha  occ. eigenvalues --   -0.64312  -0.61948  -0.61512  -0.60652  -0.57279
 Alpha  occ. eigenvalues --   -0.55667  -0.51399  -0.49726  -0.48814  -0.45827
 Alpha virt. eigenvalues --   -0.39838  -0.27157  -0.23978  -0.17244  -0.12890
 Alpha virt. eigenvalues --   -0.10651  -0.08730  -0.08553  -0.07951  -0.06690
 Alpha virt. eigenvalues --   -0.05168  -0.03381  -0.03258  -0.00936  -0.00320
 Alpha virt. eigenvalues --    0.00090   0.02461   0.03075   0.03719   0.04496
 Alpha virt. eigenvalues --    0.04725   0.05708   0.07501   0.09587   0.11027
 Alpha virt. eigenvalues --    0.11259   0.12691   0.13073   0.15531   0.15901
 Alpha virt. eigenvalues --    0.16651   0.17353   0.18419   0.19806   0.21554
 Alpha virt. eigenvalues --    0.22438   0.22940   0.23600   0.25988   0.26576
 Alpha virt. eigenvalues --    0.27303   0.27916   0.28484   0.30115   0.30399
 Alpha virt. eigenvalues --    0.31819   0.33170   0.33587   0.34471   0.38188
 Alpha virt. eigenvalues --    0.39146   0.39936   0.41433   0.43636   0.44692
 Alpha virt. eigenvalues --    0.45536   0.45623   0.47802   0.48858   0.51408
 Alpha virt. eigenvalues --    0.52929   0.54084   0.54704   0.55430   0.56019
 Alpha virt. eigenvalues --    0.57883   0.59299   0.61000   0.64275   0.66346
 Alpha virt. eigenvalues --    0.66677   0.68683   0.69303   0.70296   0.73732
 Alpha virt. eigenvalues --    0.75768   0.76742   0.78609   0.81232   0.83255
 Alpha virt. eigenvalues --    0.83797   0.87638   0.89410   0.90279   0.93673
 Alpha virt. eigenvalues --    0.94382   0.98381   0.99077   1.00432   1.02201
 Alpha virt. eigenvalues --    1.03778   1.04505   1.08377   1.13320   1.14739
 Alpha virt. eigenvalues --    1.15345   1.15979   1.18943   1.20494   1.21312
 Alpha virt. eigenvalues --    1.23025   1.24123   1.27740   1.28161   1.31578
 Alpha virt. eigenvalues --    1.33265   1.35487   1.37103   1.37335   1.38314
 Alpha virt. eigenvalues --    1.39748   1.41741   1.43497   1.45006   1.46165
 Alpha virt. eigenvalues --    1.48605   1.51710   1.56256   1.57616   1.60018
 Alpha virt. eigenvalues --    1.61547   1.63659   1.66414   1.68689   1.69640
 Alpha virt. eigenvalues --    1.71403   1.73926   1.76178   1.77495   1.79385
 Alpha virt. eigenvalues --    1.81316   1.82856   1.82974   1.84534   1.87245
 Alpha virt. eigenvalues --    1.89517   1.93118   1.98272   1.99042   2.00726
 Alpha virt. eigenvalues --    2.02686   2.04961   2.07465   2.08968   2.11847
 Alpha virt. eigenvalues --    2.15020   2.18585   2.21830   2.23470   2.26163
 Alpha virt. eigenvalues --    2.28965   2.30773   2.30959   2.33491   2.35622
 Alpha virt. eigenvalues --    2.36560   2.38826   2.39468   2.40353   2.44554
 Alpha virt. eigenvalues --    2.46205   2.48217   2.49473   2.50110   2.51327
 Alpha virt. eigenvalues --    2.52083   2.55010   2.56416   2.56801   2.57051
 Alpha virt. eigenvalues --    2.60576   2.61396   2.63399   2.65240   2.69835
 Alpha virt. eigenvalues --    2.71079   2.72533   2.72971   2.75010   2.76026
 Alpha virt. eigenvalues --    2.79052   2.79708   2.83232   2.83651   2.86975
 Alpha virt. eigenvalues --    2.87309   2.89275   2.90614   2.91341   2.92226
 Alpha virt. eigenvalues --    2.93319   2.94278   2.95398   2.97474   3.01720
 Alpha virt. eigenvalues --    3.02157   3.03087   3.04568   3.06684   3.07754
 Alpha virt. eigenvalues --    3.08540   3.10184   3.11081   3.11813   3.13731
 Alpha virt. eigenvalues --    3.16651   3.17433   3.18499   3.19591   3.21289
 Alpha virt. eigenvalues --    3.23578   3.24942   3.28120   3.29312   3.32177
 Alpha virt. eigenvalues --    3.36058   3.38056   3.39681   3.45690   3.47784
 Alpha virt. eigenvalues --    3.49270   3.54987   3.58407   3.59487   3.63928
 Alpha virt. eigenvalues --    3.66940   3.68830   3.72975   3.73497   3.73887
 Alpha virt. eigenvalues --    3.75810   3.79956   3.81224   3.90354   3.93639
 Alpha virt. eigenvalues --    3.96381   3.96689   3.98345   4.02980   4.05557
 Alpha virt. eigenvalues --    4.14064   4.16061   4.21198   4.27559   4.28657
 Alpha virt. eigenvalues --    4.32931   4.35122   4.38310   4.48569   4.52732
 Alpha virt. eigenvalues --    4.57570   4.63542   4.70615   4.76105   4.85212
 Alpha virt. eigenvalues --    4.95063   4.95528   4.96537   4.97483   4.98558
 Alpha virt. eigenvalues --    5.03720   5.04139   5.07467   5.14071   5.21445
 Alpha virt. eigenvalues --    5.25857   5.27023   5.28742   5.38071   5.44867
 Alpha virt. eigenvalues --    5.48217   5.59315   5.67667   5.75220   5.81226
 Alpha virt. eigenvalues --    6.02723   6.04571   6.07621   6.10674   6.15170
 Alpha virt. eigenvalues --    6.23684   6.25489   6.27637   6.32870   6.40699
 Alpha virt. eigenvalues --    6.47034   6.54381   6.58106   6.64945   6.76683
 Alpha virt. eigenvalues --    6.77341   6.80122   6.82504   6.91634   7.04015
 Alpha virt. eigenvalues --   21.85725  22.17244  22.38169  22.50283  22.65768
 Alpha virt. eigenvalues --   22.70755  22.96657  43.52997  43.60663  43.65760
          Condensed to atoms (all electrons):
               1          2          3          4          5          6
     1  C    4.941745   0.360707   0.016238  -0.030703  -0.093778   0.365698
     2  C    0.360707   4.998362   0.370120  -0.000612   0.016621  -0.034351
     3  C    0.016238   0.370120   5.095011   0.331856  -0.102046  -0.008190
     4  C   -0.030703  -0.000612   0.331856   4.626780   0.265205   0.009345
     5  C   -0.093778   0.016621  -0.102046   0.265205   5.367137   0.290283
     6  C    0.365698  -0.034351  -0.008190   0.009345   0.290283   5.433298
     7  H    0.407169  -0.033499   0.004583  -0.001480   0.005059  -0.022604
     8  H   -0.030514   0.409041  -0.017375   0.002886  -0.001320   0.004826
     9  H    0.005722  -0.032332   0.408073  -0.024119   0.006987  -0.002357
    10  H    0.006930  -0.002858   0.006802  -0.028660   0.406100  -0.031063
    11  O   -0.000630   0.011246  -0.053473   0.528934  -0.058117   0.012050
    12  C   -0.017431   0.003143  -0.003163   0.011421  -0.075302   0.213358
    13  O    0.006113  -0.000448   0.000042   0.005026   0.030229  -0.135889
    14  O    0.029896   0.001431   0.000050   0.000383   0.003164  -0.128221
    15  H   -0.002831  -0.000038   0.000001  -0.000029  -0.000229   0.015301
               7          8          9         10         11         12
     1  C    0.407169  -0.030514   0.005722   0.006930  -0.000630  -0.017431
     2  C   -0.033499   0.409041  -0.032332  -0.002858   0.011246   0.003143
     3  C    0.004583  -0.017375   0.408073   0.006802  -0.053473  -0.003163
     4  C   -0.001480   0.002886  -0.024119  -0.028660   0.528934   0.011421
     5  C    0.005059  -0.001320   0.006987   0.406100  -0.058117  -0.075302
     6  C   -0.022604   0.004826  -0.002357  -0.031063   0.012050   0.213358
     7  H    0.408866  -0.002755  -0.000016  -0.000031   0.000004  -0.007885
     8  H   -0.002755   0.438773  -0.003829   0.000026  -0.000081  -0.000223
     9  H   -0.000016  -0.003829   0.421055   0.000019   0.002804   0.000011
    10  H   -0.000031   0.000026   0.000019   0.399528   0.003109  -0.011810
    11  O    0.000004  -0.000081   0.002804   0.003109   7.682332  -0.000356
    12  C   -0.007885  -0.000223   0.000011  -0.011810  -0.000356   4.546915
    13  O    0.000286   0.000002  -0.000001   0.015500   0.000005   0.615853
    14  O    0.010669  -0.000058  -0.000001   0.000574   0.000000   0.396145
    15  H   -0.000545  -0.000001   0.000000  -0.000053  -0.000000  -0.015889
              13         14         15
     1  C    0.006113   0.029896  -0.002831
     2  C   -0.000448   0.001431  -0.000038
     3  C    0.000042   0.000050   0.000001
     4  C    0.005026   0.000383  -0.000029
     5  C    0.030229   0.003164  -0.000229
     6  C   -0.135889  -0.128221   0.015301
     7  H    0.000286   0.010669  -0.000545
     8  H    0.000002  -0.000058  -0.000001
     9  H   -0.000001  -0.000001   0.000000
    10  H    0.015500   0.000574  -0.000053
    11  O    0.000005   0.000000  -0.000000
    12  C    0.615853   0.396145  -0.015889
    13  O    7.803178  -0.072652   0.003023
    14  O   -0.072652   7.846929   0.291775
    15  H    0.003023   0.291775   0.346105
 Mulliken charges:
               1
     1  C    0.035670
     2  C   -0.066533
     3  C   -0.048528
     4  C    0.303768
     5  C   -0.059992
     6  C    0.018515
     7  H    0.232181
     8  H    0.200603
     9  H    0.217984
    10  H    0.235887
    11  O   -0.127826
    12  C    0.345213
    13  O   -0.270268
    14  O   -0.380084
    15  H    0.363410
 Sum of Mulliken charges =   1.00000
 Mulliken charges with hydrogens summed into heavy atoms:
               1
     1  C    0.267851
     2  C    0.134070
     3  C    0.169456
     4  C    0.303768
     5  C    0.175895
     6  C    0.018515
    11  O   -0.127826
    12  C    0.345213
    13  O   -0.270268
    14  O   -0.016674
 Electronic spatial extent (au):  <R**2>=           1859.2480
 Charge=              1.0000 electrons
 Dipole moment (field-independent basis, Debye):
    X=              0.9244    Y=             -5.2476    Z=             -0.7248  Tot=              5.3775
 Quadrupole moment (field-independent basis, Debye-Ang):
   XX=            -42.8033   YY=            -37.9981   ZZ=            -53.1735
   XY=              6.1412   XZ=              2.4455   YZ=              2.9266
 Traceless Quadrupole moment (field-independent basis, Debye-Ang):
   XX=              1.8550   YY=              6.6602   ZZ=             -8.5152
   XY=              6.1412   XZ=              2.4455   YZ=              2.9266
 Octapole moment (field-independent basis, Debye-Ang**2):
  XXX=            156.4275  YYY=             47.1705  ZZZ=             -4.9229  XYY=              9.6218
  XXY=              9.1972  XXZ=            -11.4204  XZZ=             43.3923  YZZ=             38.5257
  YYZ=            -13.0702  XYZ=            -10.1735
 Hexadecapole moment (field-independent basis, Debye-Ang**3):
 XXXX=          -1140.8651 YYYY=           -868.5967 ZZZZ=            -52.0683 XXXY=           -206.0376
 XXXZ=             46.6797 YYYX=           -131.7248 YYYZ=             54.3367 ZZZX=             15.8682
 ZZZY=              9.7670 XXYY=           -186.0099 XXZZ=           -194.5003 YYZZ=           -178.9359
 XXYZ=             37.3099 YYXZ=             43.4242 ZZXY=            -94.4753
 N-N= 4.666060103846D+02 E-N=-2.077634167186D+03  KE= 4.923774655482D+02
 No NMR shielding tensors so no spin-rotation constants.
 Leave Link  601 at Mon Jan 20 14:25:59 2025, MaxMem=   104857600 cpu:               0.1 elap:               0.1
 (Enter /sw/cluster/pub/apps//g16/l701.exe)
 ... and contract with generalized density number  0.
 Compute integral first derivatives.
   1 Symmetry operations used in ECPInt.
 ECPInt:  NShTT=    8515 NPrTT=   26800 LenC2=    8109 LenP2D=   19730.
 LDataN:  DoStor=T MaxTD1= 7 Len=  274
 Leave Link  701 at Mon Jan 20 14:25:59 2025, MaxMem=   104857600 cpu:               0.1 elap:               0.1
 (Enter /sw/cluster/pub/apps//g16/l702.exe)
 L702 exits ... SP integral derivatives will be done elsewhere.
 Leave Link  702 at Mon Jan 20 14:25:59 2025, MaxMem=   104857600 cpu:               0.0 elap:               0.0
 (Enter /sw/cluster/pub/apps//g16/l703.exe)
 Integral derivatives from FoFJK, PRISM(SPDF).
 Compute integral first derivatives, UseDBF=F ICtDFT=           0.
 Calling FoFJK, ICntrl=      2127 FMM=F ISym2X=0 I1Cent= 0 IOpClX= 0 NMat=1 NMatS=1 NMatT=0.
 FoFJK:  IHMeth= 1 ICntrl=    2127 DoSepK=F KAlg= 0 I1Cent=           0 FoldK=F
 IRaf=         0 NMat=       1 IRICut=       1 DoRegI=T DoRafI=F ISym2E= 0 IDoP0=0 IntGTp=1.
 FoFCou: FMM=F IPFlag=           0 FMFlag=      100000 FMFlg1=         800
         NFxFlg=           0 DoJE=F BraDBF=F KetDBF=F FulRan=T
         wScrn=  0.000000 ICntrl=      2127 IOpCl=  0 I1Cent=           0 NGrid=           0
         NMat0=    1 NMatS0=      1 NMatT0=    0 NMatD0=    1 NMtDS0=    0 NMtDT0=    0
 Symmetry not used in FoFCou.
 Leave Link  703 at Mon Jan 20 14:26:50 2025, MaxMem=   104857600 cpu:              51.2 elap:              51.3
 (Enter /sw/cluster/pub/apps//g16/l716.exe)
 Dipole        = 3.63700093D-01-2.06455921D+00-2.85153485D-01
 -------------------------------------------------------------------
 Center     Atomic                   Forces (Hartrees/Bohr)
 Number     Number              X              Y              Z
 -------------------------------------------------------------------
      1        6           0.005177302    0.017089253   -0.000175317
      2        6          -0.001758028    0.000811746   -0.000041185
      3        6          -0.027437586    0.002318054    0.000907596
      4        6           0.001496553    0.047215517   -0.000946160
      5        6           0.023870934    0.006816184   -0.000758128
      6        6          -0.017287902   -0.033912457    0.004417300
      7        1          -0.001296655   -0.010842520    0.000102902
      8        1           0.006758190   -0.006354593   -0.000132925
      9        1           0.004519835    0.010436514   -0.000202834
     10        1          -0.007435824    0.008025011    0.000498647
     11        8           0.000638602   -0.071023922    0.000495243
     12        6          -0.092369581   -0.002080957    0.000910359
     13        8           0.083125185   -0.033318107   -0.004978449
     14        8           0.036186395    0.063743557   -0.001602231
     15        1          -0.014187419    0.001076718    0.001505181
 -------------------------------------------------------------------
 Cartesian Forces:  Max     0.092369581 RMS     0.027105160
 Leave Link  716 at Mon Jan 20 14:26:50 2025, MaxMem=   104857600 cpu:               0.0 elap:               0.0
 (Enter /sw/cluster/pub/apps//g16/l103.exe)

 GradGradGradGradGradGradGradGradGradGradGradGradGradGradGradGradGradGrad
 Berny optimization.
 FormGI is forming the generalized inverse of G from B-inverse, IUseBI=4.
 Internal  Forces:  Max     0.089342025 RMS     0.017956144
 Search for a local minimum.
 Step number   1 out of a maximum of   77
 All quantities printed in internal units (Hartrees-Bohrs-Radians)
 RMS Force = .17956D-01 SwitMx=.10000D-02 MixMth= 1
 Mixed Optimization -- RFO/linear search
 Second derivative matrix not updated -- first step.
 ITU=  0
     Eigenvalues ---    0.00237   0.00422   0.00590   0.00849   0.01295
     Eigenvalues ---    0.01393   0.01578   0.01630   0.01880   0.02075
     Eigenvalues ---    0.02208   0.02320   0.16000   0.16000   0.16000
     Eigenvalues ---    0.16000   0.16000   0.22000   0.23374   0.23525
     Eigenvalues ---    0.25000   0.25000   0.25000   0.25000   0.28519
     Eigenvalues ---    0.29184   0.29550   0.37230   0.37230   0.37230
     Eigenvalues ---    0.37230   0.40989   0.41397   0.42402   0.50658
     Eigenvalues ---    0.53770   0.55473   0.80209   0.80209
 RFO step:  Lambda=-4.06046107D-02 EMin= 2.36824192D-03
 Linear search not attempted -- first point.
 Iteration  1 RMS(Cart)=  0.06363237 RMS(Int)=  0.00266844
 Iteration  2 RMS(Cart)=  0.00241639 RMS(Int)=  0.00005597
 Iteration  3 RMS(Cart)=  0.00002050 RMS(Int)=  0.00005450
 Iteration  4 RMS(Cart)=  0.00000000 RMS(Int)=  0.00005450
 ITry= 1 IFail=0 DXMaxC= 2.31D-01 DCOld= 1.00D+10 DXMaxT= 3.00D-01 DXLimC= 3.00D+00 Rises=F
 Variable       Old X    -DE/DX   Delta X   Delta X   Delta X     New X
                                 (Linear)    (Quad)   (Total)
    R1        2.67537  -0.00053   0.00000  -0.00024  -0.00027   2.67510
    R2        2.67537   0.00274   0.00000   0.00656   0.00650   2.68187
    R3        2.02201   0.01080   0.00000   0.02617   0.02617   2.04817
    R4        2.56236   0.00271   0.00000   0.00484   0.00486   2.56722
    R5        2.02201   0.00905   0.00000   0.02191   0.02191   2.04392
    R6        2.88378  -0.02137   0.00000  -0.06412  -0.06407   2.81972
    R7        2.02201   0.00908   0.00000   0.02200   0.02200   2.04400
    R8        2.88378  -0.02159   0.00000  -0.06501  -0.06498   2.81881
    R9        2.37803  -0.07102   0.00000  -0.08427  -0.08427   2.29376
   R10        2.56236   0.00103   0.00000   0.00168   0.00166   2.56401
   R11        2.02201   0.01024   0.00000   0.02481   0.02481   2.04682
   R12        2.91018  -0.02697   0.00000  -0.08278  -0.08278   2.82740
   R13        2.37803  -0.08934   0.00000  -0.10602  -0.10602   2.27201
   R14        2.70231  -0.06337   0.00000  -0.14066  -0.14066   2.56165
   R15        1.81414   0.01037   0.00000   0.01742   0.01742   1.83155
    A1        2.13942   0.00053   0.00000   0.00508   0.00499   2.14441
    A2        2.07188   0.00134   0.00000   0.00546   0.00550   2.07739
    A3        2.07188  -0.00187   0.00000  -0.01054  -0.01050   2.06139
    A4        2.11717  -0.00708   0.00000  -0.02509  -0.02510   2.09208
    A5        2.08301   0.00146   0.00000   0.00217   0.00218   2.08518
    A6        2.08301   0.00562   0.00000   0.02292   0.02292   2.10593
    A7        2.07286   0.00309   0.00000   0.01108   0.01116   2.08402
    A8        2.10516   0.00538   0.00000   0.02898   0.02894   2.13410
    A9        2.10516  -0.00847   0.00000  -0.04005  -0.04009   2.06507
   A10        2.04688   0.00725   0.00000   0.02231   0.02240   2.06928
   A11        2.11815  -0.00212   0.00000  -0.00597  -0.00602   2.11213
   A12        2.11815  -0.00513   0.00000  -0.01634  -0.01639   2.10177
   A13        2.07286   0.00083   0.00000   0.00145   0.00145   2.07432
   A14        2.10516  -0.00432   0.00000  -0.02017  -0.02017   2.08499
   A15        2.10516   0.00349   0.00000   0.01872   0.01872   2.12388
   A16        2.11717  -0.00461   0.00000  -0.01483  -0.01491   2.10226
   A17        2.08301   0.00724   0.00000   0.02439   0.02443   2.10744
   A18        2.08301  -0.00263   0.00000  -0.00956  -0.00952   2.07349
   A19        2.09440   0.00780   0.00000   0.02684   0.02681   2.12120
   A20        2.09440  -0.03316   0.00000  -0.11410  -0.11414   1.98025
   A21        2.09440   0.02536   0.00000   0.08726   0.08722   2.18161
   A22        1.91063  -0.01036   0.00000  -0.05166  -0.05166   1.85898
    D1       -0.00000  -0.00003   0.00000  -0.00063  -0.00061  -0.00062
    D2        3.14159  -0.00000   0.00000  -0.00028  -0.00027   3.14132
    D3        3.14159  -0.00009   0.00000  -0.00139  -0.00140   3.14019
    D4       -0.00000  -0.00006   0.00000  -0.00105  -0.00105  -0.00106
    D5        0.00000  -0.00005   0.00000  -0.00052  -0.00052  -0.00052
    D6       -3.14159  -0.00024   0.00000  -0.00370  -0.00373   3.13787
    D7       -3.14159   0.00001   0.00000   0.00025   0.00026  -3.14133
    D8        0.00000  -0.00018   0.00000  -0.00293  -0.00295  -0.00295
    D9        0.00000   0.00000   0.00000  -0.00018  -0.00016  -0.00016
   D10       -3.14159   0.00002   0.00000   0.00021   0.00023  -3.14136
   D11       -3.14159  -0.00002   0.00000  -0.00053  -0.00052   3.14108
   D12        0.00000  -0.00001   0.00000  -0.00013  -0.00013  -0.00012
   D13       -0.00000   0.00009   0.00000   0.00191   0.00191   0.00191
   D14       -3.14159  -0.00009   0.00000  -0.00178  -0.00181   3.13979
   D15        3.14159   0.00008   0.00000   0.00151   0.00154  -3.14006
   D16        0.00000  -0.00011   0.00000  -0.00218  -0.00218  -0.00218
   D17        0.00000  -0.00016   0.00000  -0.00297  -0.00299  -0.00299
   D18       -3.14159  -0.00015   0.00000  -0.00279  -0.00282   3.13878
   D19        3.14159   0.00002   0.00000   0.00072   0.00071  -3.14089
   D20       -0.00000   0.00003   0.00000   0.00090   0.00088   0.00088
   D21       -0.00000   0.00014   0.00000   0.00230   0.00230   0.00229
   D22        3.14159   0.00033   0.00000   0.00549   0.00544  -3.13615
   D23        3.14159   0.00014   0.00000   0.00212   0.00212  -3.13948
   D24       -0.00000   0.00032   0.00000   0.00531   0.00527   0.00527
   D25        3.14159  -0.00022   0.00000  -0.00503  -0.00491   3.13669
   D26       -0.00000   0.00050   0.00000   0.01051   0.01042   0.01042
   D27        0.00000  -0.00040   0.00000  -0.00815  -0.00807  -0.00806
   D28       -3.14159   0.00032   0.00000   0.00738   0.00726  -3.13433
   D29       -2.61799  -0.00723   0.00000  -0.13607  -0.13627  -2.75427
   D30        0.52360  -0.00651   0.00000  -0.12053  -0.12033   0.40327
         Item               Value     Threshold  Converged?
 Maximum Force            0.089342     0.000450     NO 
 RMS     Force            0.017956     0.000300     NO 
 Maximum Displacement     0.230825     0.001800     NO 
 RMS     Displacement     0.064029     0.001200     NO 
 Predicted change in Energy=-2.273405D-02
 Lowest energy point so far.  Saving SCF results.
 GradGradGradGradGradGradGradGradGradGradGradGradGradGradGradGradGradGrad

 Leave Link  103 at Mon Jan 20 14:26:50 2025, MaxMem=   104857600 cpu:               0.0 elap:               0.0
 (Enter /sw/cluster/pub/apps//g16/l202.exe)
                          Input orientation:                          
 ---------------------------------------------------------------------
 Center     Atomic      Atomic             Coordinates (Angstroms)
 Number     Number       Type             X           Y           Z
 ---------------------------------------------------------------------
      1          6           0        0.026447   -1.768320    0.007709
      2          6           0        1.251661   -1.059915   -0.022933
      3          6           0        1.247806    0.298593   -0.024396
      4          6           0       -0.053782    1.027554    0.006248
      5          6           0       -1.315629    0.232818    0.040181
      6          6           0       -1.236488   -1.121689    0.038452
      7          1           0        0.045409   -2.852001    0.007158
      8          1           0        2.183329   -1.608859   -0.045315
      9          1           0        2.160410    0.878736   -0.047488
     10          1           0       -2.268567    0.747060    0.065326
     11          8           0       -0.091290    2.240778    0.007644
     12          6           0       -2.503015   -1.917797    0.065372
     13          8           0       -3.580259   -1.384796    0.096575
     14          8           0       -2.298162   -3.257786    0.070000
     15          1           0       -3.113045   -3.662178   -0.264389
 ---------------------------------------------------------------------
                    Distance matrix (angstroms):
                    1          2          3          4          5
     1  C    0.000000
     2  C    1.415601   0.000000
     3  C    2.401016   1.358515   0.000000
     4  C    2.797026   2.462227   1.492131   0.000000
     5  C    2.409726   2.875087   2.565092   1.491649   0.000000
     6  C    1.419184   2.489673   2.862319   2.453381   1.356818
     7  H    1.083847   2.160445   3.372387   3.880823   3.371887
     8  H    2.163418   1.081594   2.124621   3.458034   3.954971
     9  H    3.400551   2.141213   1.081640   2.219838   3.536629
    10  H    3.405518   3.957898   3.545991   2.233258   1.083129
    11  O    4.010827   3.563570   2.359298   1.213804   2.352014
    12  C    2.534532   3.852448   4.357649   3.831101   2.456759
    13  O    3.628129   4.844305   5.114552   4.273597   2.783596
    14  O    2.761558   4.176185   5.023011   4.837918   3.626373
    15  H    3.676567   5.087311   5.895958   5.605883   4.300518
                    6          7          8          9         10
     6  C    0.000000
     7  H    2.153653   0.000000
     8  H    3.455358   2.473632   0.000000
     9  H    3.943095   4.288894   2.487701   0.000000
    10  H    2.134978   4.279148   5.038053   4.432370   0.000000
    11  O    3.552269   5.094613   4.471734   2.632176   2.641033
    12  C    1.496196   2.714884   4.697821   5.438829   2.675150
    13  O    2.359209   3.912309   5.769687   6.172488   2.503263
    14  O    2.385594   2.379273   4.776612   6.083049   4.004959
    15  H    3.172895   3.271996   5.684689   6.962490   4.501470
                   11         12         13         14         15
    11  O    0.000000
    12  C    4.807650   0.000000
    13  O    5.032455   1.202297   0.000000
    14  O    5.925233   1.355566   2.269927   0.000000
    15  H    6.637009   1.877164   2.352669   0.969217   0.000000
 Symmetry turned off by external request.
 Stoichiometry    C7H5O3(1+)
 Framework group  C1[X(C7H5O3)]
 Deg. of freedom    39
 Full point group                 C1      NOp   1
 Rotational constants (GHZ):           2.7568619           0.9584900           0.7114600
 Leave Link  202 at Mon Jan 20 14:26:50 2025, MaxMem=   104857600 cpu:               0.0 elap:               0.0
 (Enter /sw/cluster/pub/apps//g16/l301.exe)
 Standard basis: def2TZVP (5D, 7F)
 Ernie: Thresh=  0.10000D-02 Tol=  0.10000D-05 Strict=F.
   340 basis functions,   550 primitive gaussians,   390 cartesian basis functions
    35 alpha electrons       35 beta electrons
       nuclear repulsion energy       476.6485498719 Hartrees.
 IExCor=  402 DFT=T Ex+Corr=B3LYP ExCW=0 ScaHFX=  0.200000
 ScaDFX=  0.800000  0.720000  1.000000  0.810000 ScalE2=  1.000000  1.000000
 IRadAn=      5 IRanWt=     -1 IRanGd=            0 ICorTp=0 IEmpDi=  4
 NAtoms=   15 NActive=   15 NUniq=   15 SFac= 1.00D+00 NAtFMM=   60 NAOKFM=F Big=F
 Integral buffers will be    131072 words long.
 Raffenetti 2 integral format.
 Two-electron integral symmetry is turned off.
 Leave Link  301 at Mon Jan 20 14:26:50 2025, MaxMem=   104857600 cpu:               0.0 elap:               0.0
 (Enter /sw/cluster/pub/apps//g16/l302.exe)
 NPDir=0 NMtPBC=     1 NCelOv=     1 NCel=       1 NClECP=     1 NCelD=      1
         NCelK=      1 NCelE2=     1 NClLst=     1 CellRange=     0.0.
 One-electron integrals computed using PRISM.
   1 Symmetry operations used in ECPInt.
 ECPInt:  NShTT=    8515 NPrTT=   26800 LenC2=    8142 LenP2D=   19902.
 LDataN:  DoStor=T MaxTD1= 6 Len=  172
 NBasis=   340 RedAO= T EigKep=  1.13D-05  NBF=   340
 NBsUse=   340 1.00D-06 EigRej= -1.00D+00 NBFU=   340
 Precomputing XC quadrature grid using
 IXCGrd= 4 IRadAn=           5 IRanWt=          -1 IRanGd=           0 AccXCQ= 0.00D+00.
 Generated NRdTot=       0 NPtTot=           0 NUsed=           0 NTot=          32
 NSgBfM=   388   388   388   388   388 MxSgAt=    15 MxSgA2=    15.
 Leave Link  302 at Mon Jan 20 14:26:50 2025, MaxMem=   104857600 cpu:               0.2 elap:               0.2
 (Enter /sw/cluster/pub/apps//g16/l303.exe)
 DipDrv:  MaxL=1.
 Leave Link  303 at Mon Jan 20 14:26:50 2025, MaxMem=   104857600 cpu:               0.0 elap:               0.0
 (Enter /sw/cluster/pub/apps//g16/l401.exe)
 Initial guess from the checkpoint file:  "C6H5O+.chk"
 B after Tr=     0.008569   -0.007591   -0.001597
         Rot=    0.999998   -0.001673    0.001254   -0.000248 Ang=  -0.24 deg.
 Guess basis will be translated and rotated to current coordinates.
 JPrj=2 DoOrth=T DoCkMO=T.
 Generating alternative initial guess.
 ExpMin= 9.52D-02 ExpMax= 2.70D+04 ExpMxC= 9.22D+02 IAcc=2 IRadAn=         4 AccDes= 0.00D+00
 Harris functional with IExCor=  402 and IRadAn=       4 diagonalized for initial guess.
 HarFok:  IExCor=  402 AccDes= 0.00D+00 IRadAn=         4 IDoV= 1 UseB2=F ITyADJ=14
 ICtDFT=  3500011 ScaDFX=  1.000000  1.000000  1.000000  1.000000
 FoFCou: FMM=F IPFlag=           0 FMFlag=      100000 FMFlg1=           0
         NFxFlg=           0 DoJE=T BraDBF=F KetDBF=T FulRan=T
         wScrn=  0.000000 ICntrl=       500 IOpCl=  0 I1Cent=   200000004 NGrid=           0
         NMat0=    1 NMatS0=      1 NMatT0=    0 NMatD0=    1 NMtDS0=    0 NMtDT0=    0
 Symmetry not used in FoFCou.
 Harris En= -495.336639192750    
 Leave Link  401 at Mon Jan 20 14:26:52 2025, MaxMem=   104857600 cpu:               1.1 elap:               1.1
 (Enter /sw/cluster/pub/apps//g16/l502.exe)
 Two-electron integral symmetry not used.
 Closed shell SCF:
 Using DIIS extrapolation, IDIIS=  1040.
 NGot=   104857600 LenX=   104548503 LenY=   104395962
 Requested convergence on RMS density matrix=1.00D-08 within 128 cycles.
 Requested convergence on MAX density matrix=1.00D-06.
 Requested convergence on             energy=1.00D-06.
 No special actions if energy rises.
 Fock matrices will be formed incrementally for  20 cycles.
 Integral accuracy reduced to 1.0D-05 until final iterations.

 Cycle   1  Pass 0  IDiag  1:
 FoFJK:  IHMeth= 1 ICntrl=       0 DoSepK=F KAlg= 0 I1Cent=           0 FoldK=F
 IRaf= 920000000 NMat=       1 IRICut=       1 DoRegI=T DoRafI=F ISym2E= 0 IDoP0=0 IntGTp=1.
 FoFCou: FMM=F IPFlag=           0 FMFlag=      100000 FMFlg1=           0
         NFxFlg=           0 DoJE=F BraDBF=F KetDBF=F FulRan=T
         wScrn=  0.000000 ICntrl=         0 IOpCl=  0 I1Cent=           0 NGrid=           0
         NMat0=    1 NMatS0=      1 NMatT0=    0 NMatD0=    1 NMtDS0=    0 NMtDT0=    0
 Symmetry not used in FoFCou.
 E= -495.265476905496    
 DIIS: error= 2.85D-03 at cycle   1 NSaved=   1.
 NSaved= 1 IEnMin= 1 EnMin= -495.265476905496     IErMin= 1 ErrMin= 2.85D-03
 ErrMax= 2.85D-03  0.00D+00 EMaxC= 1.00D-01 BMatC= 1.16D-02 BMatP= 1.16D-02
 IDIUse=3 WtCom= 9.71D-01 WtEn= 2.85D-02
 Coeff-Com:  0.100D+01
 Coeff-En:   0.100D+01
 Coeff:      0.100D+01
 Gap=     0.725 Goal=   None    Shift=    0.000
 GapD=    0.725 DampG=2.000 DampE=1.000 DampFc=2.0000 IDamp=-1.
 RMSDP=4.97D-04 MaxDP=1.68D-02              OVMax= 2.28D-02

 Cycle   2  Pass 0  IDiag  1:
 RMSU=  4.96D-04    CP:  9.97D-01
 E= -495.274307969066     Delta-E=       -0.008831063570 Rises=F Damp=F
 DIIS: error= 2.57D-03 at cycle   2 NSaved=   2.
 NSaved= 2 IEnMin= 2 EnMin= -495.274307969066     IErMin= 2 ErrMin= 2.57D-03
 ErrMax= 2.57D-03  0.00D+00 EMaxC= 1.00D-01 BMatC= 1.81D-03 BMatP= 1.16D-02
 IDIUse=3 WtCom= 9.74D-01 WtEn= 2.57D-02
 Coeff-Com:  0.185D+00 0.815D+00
 Coeff-En:   0.000D+00 0.100D+01
 Coeff:      0.180D+00 0.820D+00
 Gap=     0.062 Goal=   None    Shift=    0.000
 RMSDP=3.46D-04 MaxDP=2.24D-02 DE=-8.83D-03 OVMax= 2.89D-02

 Cycle   3  Pass 0  IDiag  1:
 RMSU=  3.41D-04    CP:  1.00D+00  9.63D-01
 E= -495.272952416283     Delta-E=        0.001355552783 Rises=F Damp=F
 DIIS: error= 4.83D-03 at cycle   3 NSaved=   3.
 NSaved= 3 IEnMin= 2 EnMin= -495.274307969066     IErMin= 2 ErrMin= 2.57D-03
 ErrMax= 4.83D-03  0.00D+00 EMaxC= 1.00D-01 BMatC= 3.24D-03 BMatP= 1.81D-03
 IDIUse=3 WtCom= 1.26D-01 WtEn= 8.74D-01
 Coeff-Com:  0.223D-01 0.571D+00 0.407D+00
 Coeff-En:   0.000D+00 0.631D+00 0.369D+00
 Coeff:      0.280D-02 0.624D+00 0.373D+00
 Gap=     0.070 Goal=   None    Shift=    0.000
 RMSDP=1.78D-04 MaxDP=1.09D-02 DE= 1.36D-03 OVMax= 2.35D-02

 Cycle   4  Pass 0  IDiag  1:
 RMSU=  6.93D-05    CP:  1.00D+00  1.00D+00  5.31D-01
 E= -495.275580573027     Delta-E=       -0.002628156743 Rises=F Damp=F
 DIIS: error= 1.00D-03 at cycle   4 NSaved=   4.
 NSaved= 4 IEnMin= 4 EnMin= -495.275580573027     IErMin= 4 ErrMin= 1.00D-03
 ErrMax= 1.00D-03  0.00D+00 EMaxC= 1.00D-01 BMatC= 2.44D-04 BMatP= 1.81D-03
 IDIUse=3 WtCom= 9.90D-01 WtEn= 1.00D-02
 Coeff-Com: -0.125D-01 0.301D+00 0.239D+00 0.472D+00
 Coeff-En:   0.000D+00 0.000D+00 0.000D+00 0.100D+01
 Coeff:     -0.123D-01 0.298D+00 0.237D+00 0.477D+00
 Gap=     0.072 Goal=   None    Shift=    0.000
 RMSDP=4.83D-05 MaxDP=2.27D-03 DE=-2.63D-03 OVMax= 4.08D-03

 Cycle   5  Pass 0  IDiag  1:
 RMSU=  2.30D-05    CP:  1.00D+00  1.02D+00  5.01D-01  4.14D-01
 E= -495.275781578352     Delta-E=       -0.000201005325 Rises=F Damp=F
 DIIS: error= 1.85D-04 at cycle   5 NSaved=   5.
 NSaved= 5 IEnMin= 5 EnMin= -495.275781578352     IErMin= 5 ErrMin= 1.85D-04
 ErrMax= 1.85D-04  0.00D+00 EMaxC= 1.00D-01 BMatC= 1.12D-05 BMatP= 2.44D-04
 IDIUse=3 WtCom= 9.98D-01 WtEn= 1.85D-03
 Coeff-Com: -0.706D-02 0.126D+00 0.107D+00 0.255D+00 0.519D+00
 Coeff-En:   0.000D+00 0.000D+00 0.000D+00 0.000D+00 0.100D+01
 Coeff:     -0.705D-02 0.125D+00 0.107D+00 0.255D+00 0.520D+00
 Gap=     0.071 Goal=   None    Shift=    0.000
 RMSDP=1.48D-05 MaxDP=8.44D-04 DE=-2.01D-04 OVMax= 1.04D-03

 Cycle   6  Pass 0  IDiag  1:
 RMSU=  1.17D-05    CP:  1.00D+00  1.02D+00  4.96D-01  4.89D-01  6.88D-01
 E= -495.275787894597     Delta-E=       -0.000006316245 Rises=F Damp=F
 DIIS: error= 9.57D-05 at cycle   6 NSaved=   6.
 NSaved= 6 IEnMin= 6 EnMin= -495.275787894597     IErMin= 6 ErrMin= 9.57D-05
 ErrMax= 9.57D-05  0.00D+00 EMaxC= 1.00D-01 BMatC= 3.62D-06 BMatP= 1.12D-05
 IDIUse=1 WtCom= 1.00D+00 WtEn= 0.00D+00
 Coeff-Com: -0.191D-02 0.223D-01 0.241D-01 0.819D-01 0.378D+00 0.496D+00
 Coeff:     -0.191D-02 0.223D-01 0.241D-01 0.819D-01 0.378D+00 0.496D+00
 Gap=     0.071 Goal=   None    Shift=    0.000
 RMSDP=6.44D-06 MaxDP=4.50D-04 DE=-6.32D-06 OVMax= 4.83D-04

 Initial convergence to 1.0D-05 achieved.  Increase integral accuracy.
 Cycle   7  Pass 1  IDiag  1:
 E= -495.275791426772     Delta-E=       -0.000003532176 Rises=F Damp=F
 DIIS: error= 1.02D-04 at cycle   1 NSaved=   1.
 NSaved= 1 IEnMin= 1 EnMin= -495.275791426772     IErMin= 1 ErrMin= 1.02D-04
 ErrMax= 1.02D-04  0.00D+00 EMaxC= 1.00D-01 BMatC= 2.53D-06 BMatP= 2.53D-06
 IDIUse=3 WtCom= 9.99D-01 WtEn= 1.02D-03
 Coeff-Com:  0.100D+01
 Coeff-En:   0.100D+01
 Coeff:      0.100D+01
 Gap=     0.071 Goal=   None    Shift=    0.000
 RMSDP=6.44D-06 MaxDP=4.50D-04 DE=-3.53D-06 OVMax= 3.73D-04

 Cycle   8  Pass 1  IDiag  1:
 RMSU=  8.78D-05    CP:  1.00D+00
 E= -495.275791472604     Delta-E=       -0.000000045831 Rises=F Damp=F
 DIIS: error= 6.71D-05 at cycle   2 NSaved=   2.
 NSaved= 2 IEnMin= 2 EnMin= -495.275791472604     IErMin= 2 ErrMin= 6.71D-05
 ErrMax= 6.71D-05  0.00D+00 EMaxC= 1.00D-01 BMatC= 1.34D-06 BMatP= 2.53D-06
 IDIUse=1 WtCom= 1.00D+00 WtEn= 0.00D+00
 Coeff-Com:  0.382D+00 0.618D+00
 Coeff:      0.382D+00 0.618D+00
 Gap=     0.071 Goal=   None    Shift=    0.000
 RMSDP=6.18D-06 MaxDP=3.56D-04 DE=-4.58D-08 OVMax= 5.50D-04

 Cycle   9  Pass 1  IDiag  1:
 RMSU=  6.11D-06    CP:  1.00D+00  1.00D+00
 E= -495.275791268249     Delta-E=        0.000000204355 Rises=F Damp=F
 DIIS: error= 7.71D-05 at cycle   3 NSaved=   3.
 NSaved= 3 IEnMin= 2 EnMin= -495.275791472604     IErMin= 2 ErrMin= 6.71D-05
 ErrMax= 7.71D-05  0.00D+00 EMaxC= 1.00D-01 BMatC= 1.70D-06 BMatP= 1.34D-06
 IDIUse=1 WtCom= 1.00D+00 WtEn= 0.00D+00
 Coeff-Com:  0.240D-01 0.522D+00 0.454D+00
 Coeff:      0.240D-01 0.522D+00 0.454D+00
 Gap=     0.071 Goal=   None    Shift=    0.000
 RMSDP=4.03D-06 MaxDP=2.59D-04 DE= 2.04D-07 OVMax= 3.38D-04

 Cycle  10  Pass 1  IDiag  1:
 RMSU=  1.06D-06    CP:  1.00D+00  1.01D+00  3.81D-01
 E= -495.275792536364     Delta-E=       -0.000001268115 Rises=F Damp=F
 DIIS: error= 1.24D-05 at cycle   4 NSaved=   4.
 NSaved= 4 IEnMin= 4 EnMin= -495.275792536364     IErMin= 4 ErrMin= 1.24D-05
 ErrMax= 1.24D-05  0.00D+00 EMaxC= 1.00D-01 BMatC= 5.97D-08 BMatP= 1.34D-06
 IDIUse=1 WtCom= 1.00D+00 WtEn= 0.00D+00
 Coeff-Com: -0.110D-02 0.311D+00 0.287D+00 0.403D+00
 Coeff:     -0.110D-02 0.311D+00 0.287D+00 0.403D+00
 Gap=     0.071 Goal=   None    Shift=    0.000
 RMSDP=7.52D-07 MaxDP=4.94D-05 DE=-1.27D-06 OVMax= 7.82D-05

 Cycle  11  Pass 1  IDiag  1:
 RMSU=  2.52D-07    CP:  1.00D+00  1.01D+00  4.45D-01  4.46D-01
 E= -495.275792585779     Delta-E=       -0.000000049415 Rises=F Damp=F
 DIIS: error= 4.08D-06 at cycle   5 NSaved=   5.
 NSaved= 5 IEnMin= 5 EnMin= -495.275792585779     IErMin= 5 ErrMin= 4.08D-06
 ErrMax= 4.08D-06  0.00D+00 EMaxC= 1.00D-01 BMatC= 2.89D-09 BMatP= 5.97D-08
 IDIUse=1 WtCom= 1.00D+00 WtEn= 0.00D+00
 Coeff-Com: -0.138D-02 0.198D+00 0.182D+00 0.279D+00 0.342D+00
 Coeff:     -0.138D-02 0.198D+00 0.182D+00 0.279D+00 0.342D+00
 Gap=     0.071 Goal=   None    Shift=    0.000
 RMSDP=1.37D-07 MaxDP=4.96D-06 DE=-4.94D-08 OVMax= 2.22D-05

 Cycle  12  Pass 1  IDiag  1:
 RMSU=  9.34D-08    CP:  1.00D+00  1.01D+00  4.41D-01  4.83D-01  6.54D-01
 E= -495.275792588427     Delta-E=       -0.000000002648 Rises=F Damp=F
 DIIS: error= 6.33D-07 at cycle   6 NSaved=   6.
 NSaved= 6 IEnMin= 6 EnMin= -495.275792588427     IErMin= 6 ErrMin= 6.33D-07
 ErrMax= 6.33D-07  0.00D+00 EMaxC= 1.00D-01 BMatC= 1.31D-10 BMatP= 2.89D-09
 IDIUse=1 WtCom= 1.00D+00 WtEn= 0.00D+00
 Coeff-Com: -0.830D-03 0.103D+00 0.947D-01 0.148D+00 0.218D+00 0.437D+00
 Coeff:     -0.830D-03 0.103D+00 0.947D-01 0.148D+00 0.218D+00 0.437D+00
 Gap=     0.071 Goal=   None    Shift=    0.000
 RMSDP=3.95D-08 MaxDP=2.34D-06 DE=-2.65D-09 OVMax= 3.19D-06

 Cycle  13  Pass 1  IDiag  1:
 RMSU=  3.11D-08    CP:  1.00D+00  1.01D+00  4.42D-01  4.82D-01  6.99D-01
                    CP:  7.91D-01
 E= -495.275792588534     Delta-E=       -0.000000000107 Rises=F Damp=F
 DIIS: error= 7.49D-08 at cycle   7 NSaved=   7.
 NSaved= 7 IEnMin= 7 EnMin= -495.275792588534     IErMin= 7 ErrMin= 7.49D-08
 ErrMax= 7.49D-08  0.00D+00 EMaxC= 1.00D-01 BMatC= 2.76D-12 BMatP= 1.31D-10
 IDIUse=1 WtCom= 1.00D+00 WtEn= 0.00D+00
 Coeff-Com: -0.251D-03 0.293D-01 0.269D-01 0.419D-01 0.691D-01 0.182D+00
 Coeff-Com:  0.651D+00
 Coeff:     -0.251D-03 0.293D-01 0.269D-01 0.419D-01 0.691D-01 0.182D+00
 Coeff:      0.651D+00
 Gap=     0.071 Goal=   None    Shift=    0.000
 RMSDP=6.90D-09 MaxDP=2.59D-07 DE=-1.07D-10 OVMax= 1.16D-06

[...]
 ! D26   D(1,6,12,14)           -0.0411         -DE/DX =    0.0                 !
 ! D27   D(5,6,12,13)           -0.0355         -DE/DX =    0.0                 !
 ! D28   D(5,6,12,14)          179.9595         -DE/DX =    0.0                 !
 ! D29   D(6,12,14,15)         180.0037         -DE/DX =    0.0                 !
 ! D30   D(13,12,14,15)         -0.0016         -DE/DX =    0.0                 !
 --------------------------------------------------------------------------------
 GradGradGradGradGradGradGradGradGradGradGradGradGradGradGradGradGradGrad

 Leave Link  103 at Mon Jan 20 15:16:44 2025, MaxMem=   104857600 cpu:               0.0 elap:               0.0
 (Enter /sw/cluster/pub/apps//g16/l9999.exe)

 ----------------------------------------------------------------------

 Electric dipole moment (input orientation):
 (Debye = 10**-18 statcoulomb cm , SI units = C m)
                  (au)            (Debye)         (10**-30 SI)
   Tot        0.232737D+01      0.591559D+01      0.197323D+02
   x          0.147686D+00      0.375380D+00      0.125213D+01
   y         -0.232248D+01     -0.590315D+01     -0.196908D+02
   z         -0.307709D-01     -0.782117D-01     -0.260886D+00

 Dipole polarizability, Alpha (input orientation).
 (esu units = cm**3 , SI units = C**2 m**2 J**-1)
 Alpha(0;0):
               (au)            (10**-24 esu)      (10**-40 SI)
   iso        0.845006D+02      0.125217D+02      0.139323D+02
   aniso      0.663003D+02      0.982470D+01      0.109314D+02
   xx         0.100826D+03      0.149409D+02      0.166240D+02
   yx         0.924135D+01      0.136943D+01      0.152369D+01
   yy         0.110663D+03      0.163985D+02      0.182458D+02
   zx        -0.628825D+00     -0.931822D-01     -0.103679D+00
   zy         0.116294D+01      0.172330D+00      0.191743D+00
   zz         0.420129D+02      0.622567D+01      0.692700D+01

 ----------------------------------------------------------------------

 Dipole orientation:
     6         -0.14974904         -0.01314703          3.32173082
     6          2.25560567          0.11685743          2.14399619
     6          2.39876533          0.14019145         -0.41497164
     6          0.03473004          0.02907324         -1.94227924
     6         -2.42956685         -0.10541645         -0.58616239
     6         -2.47688957         -0.12413798          1.98222619
     1         -0.23624701         -0.02986601          5.36994377
     1          3.93205362          0.19522014          3.31203443
     1          4.16313824          0.23671735         -1.44901437
     1         -4.14492359         -0.18623666         -1.70475480
     8          0.10904107          0.04726016         -4.22812127
     6         -5.00005420         -0.26212288          3.31547580
     8         -6.95276784         -0.35401693          2.18607455
     8         -4.70933961         -0.26477956          5.82432007
     1         -6.35963321         -0.35468941          6.63153325

 Electric dipole moment (dipole orientation):
 (Debye = 10**-18 statcoulomb cm , SI units = C m)
                  (au)            (Debye)         (10**-30 SI)
   Tot        0.232737D+01      0.591559D+01      0.197323D+02
   x          0.000000D+00      0.000000D+00      0.000000D+00
   y          0.000000D+00      0.000000D+00      0.000000D+00
   z          0.232737D+01      0.591559D+01      0.197323D+02

 Dipole polarizability, Alpha (dipole orientation).
 (esu units = cm**3 , SI units = C**2 m**2 J**-1)
 Alpha(0;0):
               (au)            (10**-24 esu)      (10**-40 SI)
   iso        0.845006D+02      0.125217D+02      0.139323D+02
   aniso      0.663003D+02      0.982470D+01      0.109314D+02
   xx         0.101881D+03      0.150972D+02      0.167979D+02
   yx         0.312513D+01      0.463097D+00      0.515265D+00
   yy         0.421483D+02      0.624573D+01      0.694931D+01
   zx        -0.974243D+01     -0.144368D+01     -0.160631D+01
   zy        -0.928664D+00     -0.137614D+00     -0.153116D+00
   zz         0.109473D+03      0.162222D+02      0.180496D+02

 ----------------------------------------------------------------------
 1\1\GINC-N12\Freq\RB3LYP\def2TZVP\C7H5O3(1+)\UNKNOWN\20-Jan-2025\0\\#P
  Geom=AllCheck Guess=TCheck SCRF=Check GenChk RB3LYP/def2TZVP Freq\\Si
 ngle-Point\\1,1\C,0.032175331,-1.7591092812,-0.0251541588\C,1.26470705
 01,-1.0561376427,-0.0290342252\C,1.2550181558,0.2999106417,-0.00361601
 43\C,-0.0459302278,1.0266872045,0.0277753043\C,-1.3036878421,0.2275384
 159,0.0300180948\C,-1.2430181948,-1.1302525207,0.0037515012\H,0.054799
 6623,-2.8435539944,-0.0454084308\H,2.1901082355,-1.6163874346,-0.05212
 00937\H,2.1534292799,0.9053992498,-0.0046563685\H,-2.2480177377,0.7603
 682534,0.0527668386\O,-0.0829069235,2.2361944276,0.050876521\C,-2.5326
 867191,-1.9193080545,0.0062853372\O,-3.602846937,-1.3887770298,0.03123
 23392\O,-2.2953193262,-3.2342544348,-0.0224325204\H,-3.1410007863,-3.7
 161205504,-0.0201422046\\Version=ES64L-G16RevA.03\HF=-495.2799632\RMSD
 =8.239e-09\RMSF=1.241e-05\ZeroPoint=0.106487\Thermal=0.1149345\Dipole=
 1.8585482,-0.9525847,-0.0432272\DipoleDeriv=1.1186054,0.1379815,-0.010
 1169,0.010347,0.515582,0.0058634,-0.0125141,0.0039808,0.1904025,-0.344
 9915,-0.4879155,-0.0054199,-0.9041577,-0.6283466,0.0020508,-0.013126,-
 0.0033918,-0.0748255,-0.040769,0.00553,0.001976,0.4546383,0.4814982,0.
 0009329,0.0102769,0.007012,0.0965917,0.2606422,0.0085572,0.0007148,0.0
 133388,0.3708471,0.0011877,0.0007983,0.0011979,0.3002979,-0.058951,-0.
 0731729,0.0009525,-0.3992333,0.4285282,0.0113044,-0.0051072,0.0067551,
 0.1134846,-0.5406019,0.2536204,0.012477,0.7195807,-0.5709914,-0.021019
 1,0.0211928,-0.0144673,0.0275317,0.1578767,0.0066264,-0.0006051,0.0039
 19,0.1703487,0.0011917,-0.0006436,0.0009627,0.1038493,0.0921956,-0.007
 4037,0.0006512,-0.0123465,0.0978472,-0.0007972,0.0006029,-0.0008118,0.
 1498695,0.1527743,0.0344407,0.0003708,0.0354751,0.1194633,-0.0007362,0
 .0004252,-0.0007402,0.1330876,0.1867713,-0.0240261,-0.001211,-0.040734
 6,0.1472228,0.0008954,-0.0016206,0.0006391,0.129904,-0.2151746,-0.0105
 739,-0.0003355,-0.0176804,-0.3010356,-0.0012146,-0.0004459,-0.0012628,
 -0.2242517,1.4384779,0.1393987,-0.012879,0.1481183,1.7046344,0.0247798
 ,-0.012524,0.0249537,0.3213391,-1.0071323,0.0836483,0.0114015,-0.05098
 01,-0.6619646,-0.0062688,0.0087369,-0.0080785,-0.3037415,-0.482041,-0.
 1695167,-0.0009809,-0.0610619,-1.3292059,-0.0186843,0.0009488,-0.01730
 73,-0.3204571,0.2823181,0.1028056,0.0030047,0.1007772,0.4555722,0.0005
 14,0.0029997,0.0005585,0.3569178\Polar=100.8261825,9.2413507,110.66281
 99,-0.628825,1.1629409,42.0129327\Quadrupole=1.079877,6.31492,-7.39479
 7,6.1215465,0.0056336,0.139857\PG=C01 [X(C7H5O3)]\NImag=0\\0.60630641,
 0.00559757,0.69706101,-0.00577973,0.00955352,0.17428949,-0.25712969,-0
 .09184894,0.00091548,0.67742212,-0.03221433,-0.16349736,-0.00134789,-0
 .07092414,0.74523431,0.00202622,-0.00053339,-0.06661092,-0.00895589,0.
 01258381,0.12124655,-0.00296221,-0.04123988,-0.00070861,-0.12016835,0.
 01356768,0.00110020,0.60801875,-0.04331947,-0.02673863,0.00006935,0.02
 625017,-0.44086626,-0.00749518,0.08887955,0.76757159,-0.00074452,0.000
 03993,0.00152417,0.00134148,-0.00733320,-0.05819721,-0.00487363,0.0106
 4040,0.13219628,0.04656390,0.00158058,-0.00079658,-0.00301412,-0.02165
 169,-0.00021678,-0.19453705,0.02766373,0.00204950,0.47211865,0.0012390
 0,-0.00544614,0.00013956,0.02151277,-0.02594283,-0.00098570,0.00474310
 ,-0.07529740,0.00006721,-0.01355373,0.86284941,-0.00080552,0.00014298,
 -0.01412115,0.00060024,-0.00039301,0.01107165,0.00162258,-0.00024879,-
 0.08267857,-0.00437301,0.01312363,0.17106237,-0.00718236,0.04254688,0.
 00092075,-0.00272128,-0.00565926,-0.00009716,-0.03569738,-0.00955383,0
 .00062392,-0.19276253,-0.01099162,0.00129583,0.62403340,0.04242293,-0.
 02168054,-0.00102386,-0.00979010,-0.01987328,-0.00019249,0.00558096,0.
 02322954,-0.00007241,-0.03655712,-0.07688550,0.00060820,-0.08278998,0.
 74485802,0.00091373,-0.00101005,0.00185551,-0.00018492,-0.00024645,-0.
 00256383,0.00090971,0.00013220,0.02299396,0.00081944,0.00025711,-0.082
 60310,-0.00820590,0.01254779,0.13492735,-0.24703030,0.07892853,0.00386
 913,-0.03993986,-0.00975825,0.00046475,-0.00340833,0.01147386,0.000215
 26,-0.00352432,-0.01901777,-0.00013586,-0.11590903,-0.00201924,0.00073
 015,0.58918076,0.02689322,-0.15639560,-0.00197933,0.00295710,0.0540488
 6,0.00082767,0.00620511,-0.01814429,-0.00035859,0.02525156,-0.02484008
 ,-0.00105985,0.00554256,-0.42318320,-0.00688937,-0.01422874,0.72999480
 ,0.00290223,-0.00269845,-0.06835468,0.00070688,0.00100082,0.00782152,0
 .00011858,-0.00043524,-0.00328627,0.00069455,-0.00044524,0.01281351,0.
 00087166,-0.00677304,-0.06036252,-0.00649361,0.01147732,0.12833300,-0.
 06126974,0.00715931,0.00019111,0.00527611,-0.02672716,-0.00033442,-0.0
 0532335,-0.00314286,0.00008470,0.00011935,-0.00001992,-0.00000630,-0.0
 0620277,0.00261942,0.00019746,0.00414809,0.02748514,0.00066024,0.06132
 914,0.00913251,-0.34287178,-0.00537883,0.00195306,-0.00627189,-0.00045
 376,-0.00201827,-0.00085820,-0.00008217,0.00013324,0.00095261,0.000021
 19,0.00172675,-0.00090073,-0.00012794,-0.00039415,-0.00704496,-0.00040
 881,-0.00782165,0.35806380,0.00022384,-0.00535174,-0.05728894,0.000193
 60,-0.00006250,0.01687055,0.00010855,-0.00006696,0.00511972,-0.0000007
 7,0.00002318,-0.00028758,0.00017480,-0.00013858,0.00481323,0.00015135,
 -0.00079143,0.01533747,-0.00064676,0.00623888,0.02504301,-0.02038149,0
 .01309249,0.00056617,-0.26839592,0.12713491,0.00544862,0.00752083,-0.0
 0181715,-0.00002586,-0.00005091,-0.00145281,0.00013254,0.00074114,-0.0
 0027923,-0.00003640,-0.00151762,-0.00385168,0.00001461,0.00092061,0.00
 002363,-0.00004677,0.28037735,-0.01837813,0.01204488,0.00041524,0.1282
 0124,-0.13555855,-0.00346447,0.02941638,-0.01344479,-0.00080345,-0.004
 14203,-0.00200506,-0.00019770,-0.00008876,-0.00080533,0.00001532,-0.00
 317412,-0.00162184,-0.00007607,0.00021315,0.00077002,0.00005762,-0.133
 34487,0.14126574,-0.00002027,-0.00001678,0.00323744,0.00546632,-0.0034
 4534,-0.04373505,0.00055579,-0.00037954,0.00812005,0.00008597,-0.00023
 476,0.01165378,-0.00003354,0.00001927,-0.00155950,0.00002765,-0.000066
 75,0.00474897,-0.00004226,0.00005914,-0.00247453,-0.00594231,0.0039355
 2,0.02798653,-0.00225756,0.00169118,0.00020481,0.01011397,0.00576494,0
 .00014510,-0.26014299,-0.13425355,0.00048178,-0.01654175,-0.01686372,-
 0.00001667,-0.00279647,0.00431196,0.00010615,0.00141909,-0.00166204,-0
 .00006189,0.00027628,0.00021803,-0.00004052,0.00063309,-0.00026604,-0.
 00009136,0.26639581,0.00077960,-0.00565038,-0.00030935,-0.02497744,-0.
 00859633,-0.00005664,-0.13329121,-0.14688267,-0.00011554,0.01544094,0.
 01219979,-0.00008047,0.00352094,-0.00246348,-0.00007699,0.00012668,-0.
 00013652,0.00001099,-0.00115423,-0.00023837,0.00006674,0.00003077,0.00
 106534,0.00012452,0.14160103,0.14884968,0.00018696,-0.00032447,0.01038
 615,-0.00043202,-0.00047112,0.01277285,0.00050241,-0.00010323,-0.04262
 325,0.00058812,0.00036284,0.00516277,0.00009197,-0.00008947,-0.0009218
 4,-0.00002926,0.00003428,-0.00083616,-0.00006607,0.00004686,-0.0029417
 2,-0.00008527,0.00012790,-0.00564179,-0.00068360,0.00038132,0.02422022
 ,-0.00324217,-0.00159526,0.00014021,0.00122862,0.00212211,0.00002079,-
 0.00177559,-0.00403405,-0.00006395,-0.01482428,0.01354661,0.00052347,-
 0.27529363,0.12548021,0.00548254,0.00887349,-0.00243441,0.00001426,0.0
 0045082,-0.00017149,-0.00005245,0.00000390,0.00009922,-0.00000397,-0.0
 0064356,0.00058055,0.00005310,0.28304814,-0.00118309,-0.00601369,-0.00
 026986,0.00009986,0.00020958,0.00000535,-0.00347303,-0.00301549,0.0000
 0959,-0.01703528,0.01255076,0.00036976,0.12310002,-0.12760820,-0.00323
 405,0.02651772,-0.00753403,-0.00075275,0.00137676,-0.00021769,0.000038
 37,0.00007714,0.00008176,0.00000829,-0.00079274,0.00072229,-0.00002166
 ,-0.13280596,0.12801994,0.00015112,-0.00026790,0.00927427,-0.00001737,
 -0.00002458,-0.00017143,-0.00005492,0.00001748,-0.00097967,-0.00004974
 ,-0.00004505,0.00515097,0.00543252,-0.00326620,-0.04418182,0.00055544,
 -0.00035113,0.01342036,-0.00002289,0.00005770,-0.00322609,-0.00000450,
 0.00000796,-0.00041763,0.00002803,-0.00004042,0.00247490,-0.00597958,0
 .00372862,0.02525789,-0.01849963,-0.00071886,0.00026604,-0.00244444,0.
 01522817,0.00030496,0.00841942,0.04213963,0.00093461,-0.09179999,0.017
 85256,0.00095117,0.01211824,-0.03727087,-0.00060262,-0.00087271,-0.015
 78980,-0.00030466,-0.00002195,-0.00006841,0.00000402,0.00062829,0.0020
 7139,-0.00000150,0.00353275,-0.00250334,-0.00011825,0.00321379,0.00270
 706,-0.00001213,0.08424197,-0.00032501,0.00442125,0.00004971,0.0119793
 9,0.00245009,-0.00009909,0.03169200,-0.06389197,-0.00198460,0.01925583
 ,-0.67687242,-0.01203447,-0.02860234,-0.06901354,-0.00125194,-0.012218
 72,0.00172126,0.00022619,-0.00001497,-0.00035306,-0.00001444,-0.000431
 77,-0.00253353,0.00000014,0.00048655,0.00106684,0.00004440,-0.00028963
 ,0.00109551,0.00005302,-0.02188707,0.80477403,0.00027458,0.00005503,0.
 00202325,0.00024162,-0.00014409,-0.00105118,0.00073839,-0.00212707,0.0
 1906546,0.00097735,-0.01201706,-0.04689792,-0.00044051,-0.00113403,0.0
 1900269,-0.00023538,0.00027786,-0.00154966,0.00000576,-0.00001341,0.00
 041800,-0.00004692,-0.00003425,-0.00222432,-0.00006187,0.00008523,-0.0
 0165448,-0.00007011,0.00001210,-0.00153651,-0.00134378,0.01503530,0.01
 625297,-0.02607554,-0.00716184,0.00025032,0.00307018,0.00500448,0.0001
 1219,0.00044066,-0.00232231,-0.00007153,-0.00637237,0.00345146,0.00032
 083,0.01137049,-0.01858668,-0.00039117,-0.13204969,-0.02782792,0.00012
 286,0.00078892,0.00030609,-0.00003249,0.00003780,-0.00003786,0.0000061
 4,-0.00022925,-0.00007467,-0.00000525,0.00135417,0.00321326,-0.0000334
 1,0.00326246,0.00236283,-0.00003415,0.89896987,0.00401956,0.02491148,0
 .00037300,0.00760301,-0.00014402,-0.00019054,0.00168583,-0.00246747,-0
 .00003820,0.00315469,-0.00397159,-0.00035253,-0.03043156,-0.01811722,-
 0.00008714,-0.04040197,-0.12664005,-0.00025211,0.00393539,0.00008177,-
 0.00001367,0.00127722,0.00129100,-0.00000469,-0.00029336,-0.00037914,0
 .00000713,-0.00109295,-0.00139106,0.00009649,-0.00114564,-0.00109787,0
 .00004134,-0.18598976,0.68134926,0.00045704,0.00052205,0.00224250,0.00
 016399,-0.00015600,0.00459942,0.00000545,0.00001582,-0.00158953,0.0003
 1231,-0.00035554,0.01246159,-0.00060499,-0.00024107,0.00846266,-0.0001
 3094,-0.00042795,-0.08399782,0.00003734,0.00003548,-0.00207748,0.00003
 104,0.00001418,0.00055560,-0.00001010,0.00000419,-0.00056402,-0.000116
 48,0.00003238,-0.00562255,-0.00009790,-0.00000576,-0.00245177,-0.01317
 953,0.01182172,0.20080216,-0.00346355,-0.00775042,-0.00007234,-0.00377
 051,-0.00039885,0.00001755,-0.00013171,0.00179562,0.00003676,0.0022086
 8,0.00051228,-0.00003901,-0.00271554,0.00695088,0.00016176,-0.06273741
 ,0.00776014,0.00129346,0.00076200,-0.00006245,0.00000110,-0.00057562,-
 0.00059491,-0.00000590,0.00017498,-0.00000894,0.00000004,-0.00166705,-
 0.00112782,0.00000136,-0.00075801,-0.00087935,-0.00000197,-0.63988852,
 0.24665572,0.01253248,0.72656464,0.00078531,-0.00425008,-0.00012402,-0
 .00127544,-0.00033876,0.00004338,-0.00105426,0.00027065,0.00001725,-0.
 00108127,0.00251814,0.00008567,-0.00133240,-0.00581257,-0.00008183,-0.
 00638888,0.02081509,0.00009155,-0.00128554,-0.00022702,-0.00000180,-0.
 00018746,-0.00026143,0.00000204,-0.00001064,0.00022256,0.00000110,-0.0
 0053655,0.00188532,0.00004179,0.00039059,-0.00024130,-0.00001526,0.245
 76057,-0.22717317,-0.00632249,-0.31204171,0.26024412,0.00008507,-0.000
 00732,0.00179484,0.00000305,0.00003369,-0.00185185,-0.00001775,-0.0000
 2171,0.00008277,-0.00006541,0.00006392,-0.00121895,0.00000449,-0.00020
 167,-0.00032622,0.00102560,-0.00009963,0.02043391,-0.00002423,-0.00001
 921,0.00084220,0.00000132,0.00000753,-0.00022298,0.00000011,0.00000064
 ,0.00019954,0.00001096,0.00005327,-0.00010445,0.00002084,0.00000204,0.
 00026794,0.01251250,-0.00633679,-0.07458147,-0.01558024,0.00870630,0.0
 3164254,-0.00301028,-0.00027910,0.00002737,0.00028729,-0.00165055,-0.0
 0003578,-0.00027421,0.00035813,0.00001069,0.00257514,-0.00089998,-0.00
 005631,-0.00743496,-0.00018557,0.00010645,0.00270189,-0.03836252,-0.00
 065397,-0.00153628,-0.00279223,-0.00003114,0.00006156,0.00002126,-0.00
 000109,0.00007439,-0.00004342,-0.00000202,-0.00077445,-0.00058559,0.00
 000242,-0.00112878,-0.00127840,-0.00000770,-0.12783622,-0.00529452,0.0
 0080251,-0.00861529,0.07443712,0.00194873,0.52558042,0.00374124,-0.005
 79187,-0.00015421,-0.00188570,-0.00171803,-0.00000270,-0.00096810,0.00
 077908,0.00002654,0.00137746,0.00055715,0.00000318,-0.00563330,-0.0013
 0528,0.00003989,-0.01145038,-0.03543252,-0.00071060,-0.00190853,-0.001
 27345,-0.00000111,-0.00026196,-0.00032709,-0.00000154,0.00011550,0.000
 21718,0.00000262,0.00118015,0.00142048,0.00000342,-0.00093460,-0.00141
 200,-0.00001565,0.02959064,-0.29075231,-0.00483580,0.05657872,-0.05657
 937,-0.00241970,0.12971296,0.52909470,0.00010812,-0.00009910,-0.000326
 25,-0.00004215,-0.00000883,-0.00016281,-0.00001489,0.00000985,0.000018
 22,-0.00001493,0.00003203,-0.00047700,0.00000131,-0.00003425,0.0006203
 6,-0.00012775,-0.00033963,0.00935345,-0.00001653,0.00001519,-0.0001431
 1,-0.00000641,-0.00000567,-0.00004556,0.00000131,0.00000472,0.00000269
 ,0.00003687,0.00003120,0.00024059,-0.00000149,-0.00001158,0.00008794,0
 .00147893,-0.00436193,-0.06178365,0.00160246,-0.00266481,0.02830834,-0
 .00413981,0.00765427,0.04167101,-0.00036578,-0.00000225,0.00000587,0.0
 0018588,0.00016193,-0.00000035,0.00002151,-0.00011746,0.00000080,-0.00
 015840,-0.00005825,-0.00001398,0.00045267,0.00011242,-0.00000637,0.000
 66596,0.00206231,0.00011480,0.00028276,-0.00016466,-0.00000637,-0.0000
 0301,0.00000409,0.00000034,-0.00000878,-0.00002727,-0.00000087,0.00004
 779,-0.00008830,0.00000364,0.00010860,0.00015066,0.00000471,0.01315706
 ,-0.00368165,-0.00020223,-0.00538712,0.00382054,0.00007497,-0.38067023
 ,-0.19925410,0.00113496,0.37167108,0.00080909,-0.00010255,-0.00001302,
 0.00014515,0.00086449,0.00001376,0.00027414,-0.00024370,-0.00001276,0.
 00016310,-0.00036683,0.00001218,-0.00135410,-0.00043867,0.00001346,0.0
 0200543,-0.00560692,-0.00025458,-0.00071430,0.00038895,0.00001744,-0.0
 0000923,0.00003890,0.00000049,-0.00004712,0.00000322,0.00000150,-0.000
 04856,-0.00020548,-0.00001122,-0.00007079,-0.00011329,-0.00000602,-0.0
 4768828,-0.03549961,-0.00010121,0.00261109,0.00892782,0.00023866,-0.15
 315760,-0.13747665,-0.00022145,0.19708199,0.16983032,0.00002113,-0.000
 00431,0.00007431,-0.00000030,0.00001470,-0.00003828,0.00000813,-0.0000
 0738,0.00023389,-0.00001001,0.00001387,-0.00109236,-0.00003515,-0.0000
 0820,-0.00015693,0.00011348,-0.00025347,0.00612491,-0.00001715,0.00000
 970,-0.00000474,0.00000013,0.00000033,0.00001900,-0.00000125,0.0000010
 7,-0.00003585,0.00000433,-0.00001060,0.00042118,0.00000068,-0.00000893
 ,0.00024758,-0.00105623,-0.00070209,0.00354435,0.00005250,0.00022114,-
 0.00526616,0.00202965,0.00041140,-0.01736423,-0.00110993,0.00032276,0.
 01329332\\0.00004339,-0.00000437,0.00001160,-0.00001834,-0.00002515,-0
 .00000985,0.00000838,0.00000642,0.00000534,-0.00002356,-0.00000259,-0.
 00000708,0.00000466,-0.00001374,0.00001125,-0.00002222,0.00002500,-0.0
 0000550,-0.00000767,-0.00000100,0.00000589,0.00000152,0.00000468,-0.00
 000034,0.00000017,-0.00000100,-0.00000135,-0.00000193,-0.00000101,-0.0
 0000537,0.00000759,0.00000628,0.00000084,-0.00000180,-0.00000644,-0.00
 000182,-0.00001218,0.00002273,0.00000153,0.00001713,-0.00001556,-0.000
 00518,0.00000485,0.00000576,0.00000005\\\@


 IF NO USE IS MADE OF THE LABOR OF PAST AGES,
 THE WORLD MUST REMAIN ALWAYS IN THE INFANCY OF KNOWLEDGE.

                          -- CICERO
 Job cpu time:       0 days  0 hours 22 minutes 28.1 seconds.
 Elapsed time:       0 days  0 hours 22 minutes 30.4 seconds.
 File lengths (MBytes):  RWF=    160 Int=      0 D2E=      0 Chk=     11 Scr=      1
 Normal termination of Gaussian 16 at Mon Jan 20 15:16:44 2025.
