 Entering Gaussian System, Link 0=g16
 Initial command:
 /sw/cluster/pub/apps//g16/l1.exe "/data/mmaximo/28052/Gau-920929.inp" -scrdir="/data/mmaximo/28052/"
 Entering Link 1 = /sw/cluster/pub/apps//g16/l1.exe PID=    920930.
  
 Copyright (c) 1988,1990,1992,1993,1995,1998,2003,2009,2016,
            Gaussian, Inc.  All Rights Reserved.
  
 This is part of the Gaussian(R) 16 program.  It is based on
 the Gaussian(R) 09 system (copyright 2009, Gaussian, Inc.),
 the Gaussian(R) 03 system (copyright 2003, Gaussian, Inc.),
 the Gaussian(R) 98 system (copyright 1998, Gaussian, Inc.),
 the Gaussian(R) 94 system (copyright 1995, Gaussian, Inc.),
 the Gaussian 92(TM) system (copyright 1992, Gaussian, Inc.),
 the Gaussian 90(TM) system (copyright 1990, Gaussian, Inc.),
 the Gaussian 88(TM) system (copyright 1988, Gaussian, Inc.),
 the Gaussian 86(TM) system (copyright 1986, Carnegie Mellon
 University), and the Gaussian 82(TM) system (copyright 1983,
 Carnegie Mellon University). Gaussian is a federally registered
 trademark of Gaussian, Inc.
  
 This software contains proprietary and confidential information,
 including trade secrets, belonging to Gaussian, Inc.
  
 This software is provided under written license and may be
 used, copied, transmitted, or stored only in accord with that
 written license.
  
 The following legend is applicable only to US Government
 contracts under FAR:
  
                    RESTRICTED RIGHTS LEGEND
  
 Use, reproduction and disclosure by the US Government is
 subject to restrictions as set forth in subparagraphs (a)
 and (c) of the Commercial Computer Software - Restricted
 Rights clause in FAR 52.227-19.
  
 Gaussian, Inc.
 340 Quinnipiac St., Bldg. 40, Wallingford CT 06492
  
  
 ---------------------------------------------------------------
 Warning -- This program may not be used in any manner that
 competes with the business of Gaussian, Inc. or will provide
 assistance to any competitor of Gaussian, Inc.  The licensee
 of this program is prohibited from giving any competitor of
 Gaussian, Inc. access to this program.  By using this program,
 the user acknowledges that Gaussian, Inc. is engaged in the
 business of creating and licensing software in the field of
 computational chemistry and represents and warrants to the
 licensee that it is not a competitor of Gaussian, Inc. and that
 it will not use this program in any manner prohibited above.
 ---------------------------------------------------------------
  

 Cite this work as:
 Gaussian 16, Revision A.03,
 M. J. Frisch, G. W. Trucks, H. B. Schlegel, G. E. Scuseria, 
 M. A. Robb, J. R. Cheeseman, G. Scalmani, V. Barone, 
 G. A. Petersson, H. Nakatsuji, X. Li, M. Caricato, A. V. Marenich, 
 J. Bloino, B. G. Janesko, R. Gomperts, B. Mennucci, H. P. Hratchian, 
 J. V. Ortiz, A. F. Izmaylov, J. L. Sonnenberg, D. Williams-Young, 
 F. Ding, F. Lipparini, F. Egidi, J. Goings, B. Peng, A. Petrone, 
 T. Henderson, D. Ranasinghe, V. G. Zakrzewski, J. Gao, N. Rega, 
 G. Zheng, W. Liang, M. Hada, M. Ehara, K. Toyota, R. Fukuda, 
 J. Hasegawa, M. Ishida, T. Nakajima, Y. Honda, O. Kitao, H. Nakai, 
 T. Vreven, K. Throssell, J. A. Montgomery, Jr., J. E. Peralta, 
 F. Ogliaro, M. J. Bearpark, J. J. Heyd, E. N. Brothers, K. N. Kudin, 
 V. N. Staroverov, T. A. Keith, R. Kobayashi, J. Normand, 
 K. Raghavachari, A. P. Rendell, J. C. Burant, S. S. Iyengar, 
 J. Tomasi, M. Cossi, J. M. Millam, M. Klene, C. Adamo, R. Cammi, 
 J. W. Ochterski, R. L. Martin, K. Morokuma, O. Farkas, 
 J. B. Foresman, and D. J. Fox, Gaussian, Inc., Wallingford CT, 2016.
 
 ******************************************
 Gaussian 16:  ES64L-G16RevA.03 25-Dec-2016
                20-Jan-2025 
 ******************************************
 %chk=C6H4-NH2-2.chk
 -------------------------
 # opt freq b3lyp def2tzvp
 -------------------------
 1/18=20,19=15,26=3,38=1/1,3;
 2/9=110,12=2,17=6,18=5,40=1/2;
 3/5=44,7=101,11=2,25=1,30=1,71=1,74=-5/1,2,3;
 4//1;
 5/5=2,38=5/2;
 6/7=2,8=2,9=2,10=2,28=1/1;
 7//1,2,3,16;
 1/18=20,19=15,26=3/3(2);
 2/9=110/2;
 99//99;
 2/9=110/2;
 3/5=44,7=101,11=2,25=1,30=1,71=1,74=-5/1,2,3;
 4/5=5,16=3,69=1/1;
 5/5=2,38=5/2;
 7//1,2,3,16;
 1/18=20,19=15,26=3/3(-5);
 2/9=110/2;
 6/7=2,8=2,9=2,10=2,19=2,28=1/1;
 99/9=1/99;
 --------
 opt meta
 --------
 Symbolic Z-matrix:
 Charge =  0 Multiplicity = 1
 C                     1.41018   0.03409  -0.03018 
 C                     0.68535   1.23265   0.01456 
 C                    -0.71559   1.20391   0.03597 
 C                    -1.3917   -0.02338   0.01264 
 C                    -0.66687  -1.22194  -0.0321 
 C                     0.73407  -1.1932   -0.05351 
 H                     3.20401   0.87401   0.43633 
 H                     3.23678  -0.75801   0.39053 
 H                     1.20158   2.16972   0.03237 
 H                    -1.26902   2.11904   0.07013 
 N                    -2.86122  -0.05353   0.0351 
 H                     1.2875   -2.10833  -0.08768 
 N                     2.8797    0.06424  -0.05264 
 H                    -3.2183    0.76872  -0.40807 
 H                    -3.18553  -0.8633   -0.45386 
 C                    -1.40985  -2.57061  -0.05774 
 O                    -2.66784  -2.59642  -0.03851 
 O                    -0.67022  -3.79363  -0.10339 
 H                    -1.16828  -4.48547   0.33809 
 

 GradGradGradGradGradGradGradGradGradGradGradGradGradGradGradGradGradGrad
 Berny optimization.
 Initialization pass.
                           ----------------------------
                           !    Initial Parameters    !
                           ! (Angstroms and Degrees)  !
 --------------------------                            --------------------------
 ! Name  Definition              Value          Derivative Info.                !
 --------------------------------------------------------------------------------
 ! R1    R(1,2)                  1.4014         estimate D2E/DX2                !
 ! R2    R(1,6)                  1.4014         estimate D2E/DX2                !
 ! R3    R(1,13)                 1.47           estimate D2E/DX2                !
 ! R4    R(2,3)                  1.4014         estimate D2E/DX2                !
 ! R5    R(2,9)                  1.07           estimate D2E/DX2                !
 ! R6    R(3,4)                  1.4014         estimate D2E/DX2                !
 ! R7    R(3,10)                 1.07           estimate D2E/DX2                !
 ! R8    R(4,5)                  1.4014         estimate D2E/DX2                !
 ! R9    R(4,11)                 1.47           estimate D2E/DX2                !
 ! R10   R(5,6)                  1.4014         estimate D2E/DX2                !
 ! R11   R(5,16)                 1.54           estimate D2E/DX2                !
 ! R12   R(6,12)                 1.07           estimate D2E/DX2                !
 ! R13   R(7,13)                 1.0            estimate D2E/DX2                !
 ! R14   R(8,13)                 1.0            estimate D2E/DX2                !
 ! R15   R(11,14)                1.0            estimate D2E/DX2                !
 ! R16   R(11,15)                1.0            estimate D2E/DX2                !
 ! R17   R(16,17)                1.2584         estimate D2E/DX2                !
 ! R18   R(16,18)                1.43           estimate D2E/DX2                !
 ! R19   R(18,19)                0.96           estimate D2E/DX2                !
 ! A1    A(2,1,6)              120.0            estimate D2E/DX2                !
 ! A2    A(2,1,13)             120.0            estimate D2E/DX2                !
 ! A3    A(6,1,13)             120.0            estimate D2E/DX2                !
 ! A4    A(1,2,3)              120.0            estimate D2E/DX2                !
 ! A5    A(1,2,9)              120.0            estimate D2E/DX2                !
 ! A6    A(3,2,9)              120.0            estimate D2E/DX2                !
 ! A7    A(2,3,4)              120.0            estimate D2E/DX2                !
 ! A8    A(2,3,10)             120.0            estimate D2E/DX2                !
 ! A9    A(4,3,10)             120.0            estimate D2E/DX2                !
 ! A10   A(3,4,5)              120.0            estimate D2E/DX2                !
 ! A11   A(3,4,11)             120.0            estimate D2E/DX2                !
 ! A12   A(5,4,11)             120.0            estimate D2E/DX2                !
 ! A13   A(4,5,6)              120.0            estimate D2E/DX2                !
 ! A14   A(4,5,16)             120.0            estimate D2E/DX2                !
 ! A15   A(6,5,16)             120.0            estimate D2E/DX2                !
 ! A16   A(1,6,5)              120.0            estimate D2E/DX2                !
 ! A17   A(1,6,12)             120.0            estimate D2E/DX2                !
 ! A18   A(5,6,12)             120.0            estimate D2E/DX2                !
 ! A19   A(4,11,14)            109.4712         estimate D2E/DX2                !
 ! A20   A(4,11,15)            109.4712         estimate D2E/DX2                !
 ! A21   A(14,11,15)           109.4712         estimate D2E/DX2                !
 ! A22   A(1,13,7)             109.4712         estimate D2E/DX2                !
 ! A23   A(1,13,8)             109.4712         estimate D2E/DX2                !
 ! A24   A(7,13,8)             109.4712         estimate D2E/DX2                !
 ! A25   A(5,16,17)            120.0            estimate D2E/DX2                !
 ! A26   A(5,16,18)            120.0            estimate D2E/DX2                !
 ! A27   A(17,16,18)           120.0            estimate D2E/DX2                !
 ! A28   A(16,18,19)           109.4712         estimate D2E/DX2                !
 ! D1    D(6,1,2,3)              0.0002         estimate D2E/DX2                !
 ! D2    D(6,1,2,9)           -179.9998         estimate D2E/DX2                !
 ! D3    D(13,1,2,3)          -179.9998         estimate D2E/DX2                !
 ! D4    D(13,1,2,9)             0.0002         estimate D2E/DX2                !
 ! D5    D(2,1,6,5)             -0.0002         estimate D2E/DX2                !
 ! D6    D(2,1,6,12)           179.9999         estimate D2E/DX2                !
 ! D7    D(13,1,6,5)           179.9998         estimate D2E/DX2                !
 ! D8    D(13,1,6,12)           -0.0001         estimate D2E/DX2                !
 ! D9    D(2,1,13,7)            30.0            estimate D2E/DX2                !
 ! D10   D(2,1,13,8)           150.0            estimate D2E/DX2                !
 ! D11   D(6,1,13,7)          -150.0            estimate D2E/DX2                !
 ! D12   D(6,1,13,8)           -30.0            estimate D2E/DX2                !
 ! D13   D(1,2,3,4)              0.0            estimate D2E/DX2                !
 ! D14   D(1,2,3,10)           179.9999         estimate D2E/DX2                !
 ! D15   D(9,2,3,4)            180.0            estimate D2E/DX2                !
 ! D16   D(9,2,3,10)            -0.0001         estimate D2E/DX2                !
 ! D17   D(2,3,4,5)             -0.0001         estimate D2E/DX2                !
 ! D18   D(2,3,4,11)           179.9999         estimate D2E/DX2                !
 ! D19   D(10,3,4,5)           180.0            estimate D2E/DX2                !
 ! D20   D(10,3,4,11)            0.0            estimate D2E/DX2                !
 ! D21   D(3,4,5,6)              0.0            estimate D2E/DX2                !
 ! D22   D(3,4,5,16)          -179.9999         estimate D2E/DX2                !
 ! D23   D(11,4,5,6)          -180.0            estimate D2E/DX2                !
 ! D24   D(11,4,5,16)            0.0001         estimate D2E/DX2                !
 ! D25   D(3,4,11,14)           30.0            estimate D2E/DX2                !
 ! D26   D(3,4,11,15)          150.0            estimate D2E/DX2                !
 ! D27   D(5,4,11,14)         -150.0            estimate D2E/DX2                !
 ! D28   D(5,4,11,15)          -30.0            estimate D2E/DX2                !
 ! D29   D(4,5,6,1)              0.0001         estimate D2E/DX2                !
 ! D30   D(4,5,6,12)          -180.0            estimate D2E/DX2                !
 ! D31   D(16,5,6,1)          -179.9999         estimate D2E/DX2                !
 ! D32   D(16,5,6,12)            0.0            estimate D2E/DX2                !
 ! D33   D(4,5,16,17)            0.0002         estimate D2E/DX2                !
 ! D34   D(4,5,16,18)         -179.9998         estimate D2E/DX2                !
 ! D35   D(6,5,16,17)         -179.9998         estimate D2E/DX2                !
 ! D36   D(6,5,16,18)            0.0002         estimate D2E/DX2                !
 ! D37   D(5,16,18,19)         150.0            estimate D2E/DX2                !
 ! D38   D(17,16,18,19)        -30.0            estimate D2E/DX2                !
 --------------------------------------------------------------------------------
 Trust Radius=3.00D-01 FncErr=1.00D-07 GrdErr=1.00D-06 EigMax=2.50D+02 EigMin=1.00D-04
 Number of steps in this run=     95 maximum allowed number of steps=    114.
 GradGradGradGradGradGradGradGradGradGradGradGradGradGradGradGradGradGrad

                          Input orientation:                          
 ---------------------------------------------------------------------
 Center     Atomic      Atomic             Coordinates (Angstroms)
 Number     Number       Type             X           Y           Z
 ---------------------------------------------------------------------
      1          6           0        1.410183    0.034093   -0.030185
      2          6           0        0.685351    1.232651    0.014555
      3          6           0       -0.715590    1.203913    0.035968
      4          6           0       -1.391701   -0.023381    0.012641
      5          6           0       -0.666869   -1.221939   -0.032101
      6          6           0        0.734072   -1.193201   -0.053515
      7          1           0        3.204006    0.874013    0.436327
      8          1           0        3.236784   -0.758009    0.390532
      9          1           0        1.201577    2.169718    0.032365
     10          1           0       -1.269015    2.119038    0.070129
     11          7           0       -2.861220   -0.053526    0.035103
     12          1           0        1.287497   -2.108326   -0.087676
     13          7           0        2.879702    0.064237   -0.052642
     14          1           0       -3.218303    0.768721   -0.408070
     15          1           0       -3.185526   -0.863301   -0.453865
     16          6           0       -1.409848   -2.570614   -0.057738
     17          8           0       -2.667836   -2.596419   -0.038513
     18          8           0       -0.670224   -3.793632   -0.103389
     19          1           0       -1.168278   -4.485467    0.338093
 ---------------------------------------------------------------------
                    Distance matrix (angstroms):
                    1          2          3          4          5
     1  C    0.000000
     2  C    1.401400   0.000000
     3  C    2.427296   1.401400   0.000000
     4  C    2.802800   2.427296   1.401400   0.000000
     5  C    2.427296   2.802800   2.427296   1.401400   0.000000
     6  C    1.401400   2.427296   2.802800   2.427296   1.401400
     7  H    2.034920   2.578785   3.953778   4.701632   4.426750
     8  H    2.034920   3.257897   4.426750   4.701632   3.953778
     9  H    2.146700   1.070000   2.146700   3.396345   3.872800
    10  H    3.396345   2.146700   1.070000   2.146700   3.396345
    11  N    4.272800   3.772644   2.486942   1.470000   2.486942
    12  H    2.146700   3.396345   3.872800   3.396345   2.146700
    13  N    1.470000   2.486942   3.772644   4.272800   3.772644
    14  H    4.701633   3.953778   2.578785   2.034920   3.257897
    15  H    4.701633   4.426751   3.257897   2.034920   2.578785
    16  C    3.838989   4.342800   3.838989   2.548270   1.540000
    17  O    4.852825   5.090036   4.273095   2.872571   2.427572
    18  O    4.357170   5.207208   4.999694   3.840414   2.572683
    19  H    5.216370   6.019759   5.715353   4.479514   3.322510
                    6          7          8          9         10
     6  C    0.000000
     7  H    3.257897   0.000000
     8  H    2.578785   1.632993   0.000000
     9  H    3.396345   2.419041   3.583565   0.000000
    10  H    3.872800   4.657479   5.355584   2.471400   0.000000
    11  N    3.772644   6.148843   6.148843   4.631321   2.693767
    12  H    1.070000   3.583564   2.419041   4.280590   4.942800
    13  N    2.486942   1.000000   1.000000   2.693766   4.631321
    14  H    4.426750   6.478437   6.681079   4.657479   2.419041
    15  H    3.953778   6.681079   6.478437   5.355585   3.583564
    16  C    2.548270   5.779031   5.007761   5.412800   4.693509
    17  O    3.679977   6.837244   6.199062   6.139499   4.919761
    18  O    2.955804   6.089980   4.972291   6.251688   5.945446
    19  H    3.822474   6.917409   5.770725   7.071150   6.610707
                   11         12         13         14         15
    11  N    0.000000
    12  H    4.631321   0.000000
    13  N    5.742800   2.693766   0.000000
    14  H    1.000000   5.355585   6.148845   0.000000
    15  H    1.000000   4.657479   6.148845   1.632993   0.000000
    16  C    2.907032   2.736837   5.034154   3.813712   2.494968
    17  O    2.551299   3.985638   6.152599   3.429833   1.855860
    18  O    4.336824   2.583249   5.242872   5.234558   3.877682
    19  H    4.753942   3.444258   6.102346   5.689100   4.220968
                   16         17         18         19
    16  C    0.000000
    17  O    1.258400   0.000000
    18  O    1.430000   2.329803   0.000000
    19  H    1.970203   2.441108   0.960000   0.000000
 Stoichiometry    C7H8N2O2
 Framework group  C1[X(C7H8N2O2)]
 Deg. of freedom    51
 Full point group                 C1      NOp   1
 Largest Abelian subgroup         C1      NOp   1
 Largest concise Abelian subgroup C1      NOp   1
                         Standard orientation:                         
 ---------------------------------------------------------------------
 Center     Atomic      Atomic             Coordinates (Angstroms)
 Number     Number       Type             X           Y           Z
 ---------------------------------------------------------------------
      1          6           0        1.996353   -0.450653   -0.041282
      2          6           0        2.176422    0.938596   -0.002754
      3          6           0        1.062946    1.788713    0.034594
      4          6           0       -0.230598    1.249581    0.033414
      5          6           0       -0.410667   -0.139668   -0.005116
      6          6           0        0.702808   -0.989785   -0.042465
      7          1           0        3.930180   -0.909675    0.395195
      8          1           0        2.938788   -2.207016    0.368479
      9          1           0        3.164072    1.350235   -0.001854
     10          1           0        1.200433    2.849435    0.064012
     11          7           0       -1.398580    2.141312    0.072592
     12          1           0        0.565322   -2.050507   -0.071883
     13          7           0        3.164334   -1.342385   -0.080454
     14          1           0       -1.173035    3.005945   -0.376341
     15          1           0       -2.164427    1.708603   -0.403056
     16          6           0       -1.832145   -0.732120   -0.006414
     17          8           0       -2.832001    0.031250    0.027119
     18          8           0       -2.015889   -2.149721   -0.045726
     19          1           0       -2.829206   -2.379725    0.409481
 ---------------------------------------------------------------------
 Rotational constants (GHZ):           1.7386502           0.8726158           0.5823486
 Standard basis: def2TZVP (5D, 7F)
 There are   444 symmetry adapted cartesian basis functions of A   symmetry.
 There are   389 symmetry adapted basis functions of A   symmetry.
   389 basis functions,   625 primitive gaussians,   444 cartesian basis functions
    40 alpha electrons       40 beta electrons
       nuclear repulsion energy       582.0878352270 Hartrees.
 NAtoms=   19 NActive=   19 NUniq=   19 SFac= 1.00D+00 NAtFMM=   60 NAOKFM=F Big=F
 Integral buffers will be    131072 words long.
 Raffenetti 2 integral format.
 Two-electron integral symmetry is turned on.
 One-electron integrals computed using PRISM.
   1 Symmetry operations used in ECPInt.
 ECPInt:  NShTT=   11781 NPrTT=   36312 LenC2=   11177 LenP2D=   26453.
 LDataN:  DoStor=T MaxTD1= 6 Len=  172
 NBasis=   389 RedAO= T EigKep=  7.56D-06  NBF=   389
 NBsUse=   389 1.00D-06 EigRej= -1.00D+00 NBFU=   389
 ExpMin= 9.52D-02 ExpMax= 2.70D+04 ExpMxC= 9.22D+02 IAcc=3 IRadAn=         5 AccDes= 0.00D+00
 Harris functional with IExCor=  402 and IRadAn=       5 diagonalized for initial guess.
 HarFok:  IExCor=  402 AccDes= 0.00D+00 IRadAn=         5 IDoV= 1 UseB2=F ITyADJ=14
 ICtDFT=  3500011 ScaDFX=  1.000000  1.000000  1.000000  1.000000
 FoFCou: FMM=F IPFlag=           0 FMFlag=      100000 FMFlg1=           0
         NFxFlg=           0 DoJE=T BraDBF=F KetDBF=T FulRan=T
         wScrn=  0.000000 ICntrl=       500 IOpCl=  0 I1Cent=   200000004 NGrid=           0
         NMat0=    1 NMatS0=      1 NMatT0=    0 NMatD0=    1 NMtDS0=    0 NMtDT0=    0
 Petite list used in FoFCou.
 Requested convergence on RMS density matrix=1.00D-08 within 128 cycles.
 Requested convergence on MAX density matrix=1.00D-06.
 Requested convergence on             energy=1.00D-06.
 No special actions if energy rises.
 Integral accuracy reduced to 1.0D-05 until final iterations.
 Initial convergence to 1.0D-05 achieved.  Increase integral accuracy.
 SCF Done:  E(RB3LYP) =  -531.728178933     A.U. after   14 cycles
            NFock= 14  Conv=0.85D-08     -V/T= 2.0057

 **********************************************************************

            Population analysis using the SCF density.

 **********************************************************************

 Orbital symmetries:
       Occupied  (A) (A) (A) (A) (A) (A) (A) (A) (A) (A) (A) (A)
                 (A) (A) (A) (A) (A) (A) (A) (A) (A) (A) (A) (A)
                 (A) (A) (A) (A) (A) (A) (A) (A) (A) (A) (A) (A)
                 (A) (A) (A) (A)
       Virtual   (A) (A) (A) (A) (A) (A) (A) (A) (A) (A) (A) (A)
                 (A) (A) (A) (A) (A) (A) (A) (A) (A) (A) (A) (A)
                 (A) (A) (A) (A) (A) (A) (A) (A) (A) (A) (A) (A)
                 (A) (A) (A) (A) (A) (A) (A) (A) (A) (A) (A) (A)
                 (A) (A) (A) (A) (A) (A) (A) (A) (A) (A) (A) (A)
                 (A) (A) (A) (A) (A) (A) (A) (A) (A) (A) (A) (A)
                 (A) (A) (A) (A) (A) (A) (A) (A) (A) (A) (A) (A)
                 (A) (A) (A) (A) (A) (A) (A) (A) (A) (A) (A) (A)
                 (A) (A) (A) (A) (A) (A) (A) (A) (A) (A) (A) (A)
                 (A) (A) (A) (A) (A) (A) (A) (A) (A) (A) (A) (A)
                 (A) (A) (A) (A) (A) (A) (A) (A) (A) (A) (A) (A)
                 (A) (A) (A) (A) (A) (A) (A) (A) (A) (A) (A) (A)
                 (A) (A) (A) (A) (A) (A) (A) (A) (A) (A) (A) (A)
                 (A) (A) (A) (A) (A) (A) (A) (A) (A) (A) (A) (A)
                 (A) (A) (A) (A) (A) (A) (A) (A) (A) (A) (A) (A)
                 (A) (A) (A) (A) (A) (A) (A) (A) (A) (A) (A) (A)
                 (A) (A) (A) (A) (A) (A) (A) (A) (A) (A) (A) (A)
                 (A) (A) (A) (A) (A) (A) (A) (A) (A) (A) (A) (A)
                 (A) (A) (A) (A) (A) (A) (A) (A) (A) (A) (A) (A)
                 (A) (A) (A) (A) (A) (A) (A) (A) (A) (A) (A) (A)
                 (A) (A) (A) (A) (A) (A) (A) (A) (A) (A) (A) (A)
                 (A) (A) (A) (A) (A) (A) (A) (A) (A) (A) (A) (A)
                 (A) (A) (A) (A) (A) (A) (A) (A) (A) (A) (A) (A)
                 (A) (A) (A) (A) (A) (A) (A) (A) (A) (A) (A) (A)
                 (A) (A) (A) (A) (A) (A) (A) (A) (A) (A) (A) (A)
                 (A) (A) (A) (A) (A) (A) (A) (A) (A) (A) (A) (A)
                 (A) (A) (A) (A) (A) (A) (A) (A) (A) (A) (A) (A)
                 (A) (A) (A) (A) (A) (A) (A) (A) (A) (A) (A) (A)
                 (A) (A) (A) (A) (A) (A) (A) (A) (A) (A) (A) (A)
                 (A)
 The electronic state is 1-A.
 Alpha  occ. eigenvalues --  -19.17512 -19.12637 -14.32300 -14.30890 -10.32920
 Alpha  occ. eigenvalues --  -10.22910 -10.22299 -10.20764 -10.19176 -10.18861
 Alpha  occ. eigenvalues --  -10.18765  -1.08401  -1.00977  -0.91869  -0.90203
 Alpha  occ. eigenvalues --   -0.83783  -0.77410  -0.72803  -0.66223  -0.62914
 Alpha  occ. eigenvalues --   -0.58982  -0.53829  -0.52498  -0.50657  -0.49536
 Alpha  occ. eigenvalues --   -0.47316  -0.46308  -0.44770  -0.44411  -0.42751
 Alpha  occ. eigenvalues --   -0.40467  -0.39647  -0.38779  -0.37526  -0.34326
 Alpha  occ. eigenvalues --   -0.32829  -0.28473  -0.28234  -0.27291  -0.20859
 Alpha virt. eigenvalues --   -0.06638  -0.01190   0.01948   0.02890   0.03350
 Alpha virt. eigenvalues --    0.04653   0.06002   0.07673   0.10066   0.11371
 Alpha virt. eigenvalues --    0.12836   0.13194   0.14578   0.15900   0.16181
 Alpha virt. eigenvalues --    0.17820   0.18768   0.20030   0.21005   0.22137
 Alpha virt. eigenvalues --    0.23219   0.23492   0.24251   0.24830   0.26203
 Alpha virt. eigenvalues --    0.27933   0.28954   0.29087   0.30530   0.30961
 Alpha virt. eigenvalues --    0.31736   0.33133   0.33860   0.34508   0.35546
 Alpha virt. eigenvalues --    0.36990   0.37400   0.38278   0.38927   0.40384
 Alpha virt. eigenvalues --    0.41208   0.42306   0.42655   0.43221   0.44190
 Alpha virt. eigenvalues --    0.44265   0.45220   0.46092   0.46770   0.47643
 Alpha virt. eigenvalues --    0.48403   0.49117   0.50837   0.51497   0.52356
 Alpha virt. eigenvalues --    0.53037   0.55325   0.56584   0.58290   0.59437
 Alpha virt. eigenvalues --    0.60449   0.61558   0.62314   0.63780   0.65282
 Alpha virt. eigenvalues --    0.65808   0.66888   0.67376   0.68821   0.69181
 Alpha virt. eigenvalues --    0.69948   0.71940   0.74787   0.75607   0.76397
 Alpha virt. eigenvalues --    0.78377   0.79392   0.80903   0.83383   0.83935
 Alpha virt. eigenvalues --    0.84905   0.86291   0.89209   0.92040   0.93742
 Alpha virt. eigenvalues --    0.96294   0.97822   0.99618   1.01989   1.04779
 Alpha virt. eigenvalues --    1.06415   1.08022   1.09239   1.11835   1.15248
 Alpha virt. eigenvalues --    1.15783   1.18669   1.19503   1.21158   1.22467
 Alpha virt. eigenvalues --    1.23106   1.24832   1.28377   1.28785   1.30076
 Alpha virt. eigenvalues --    1.32057   1.32738   1.34593   1.36693   1.37811
 Alpha virt. eigenvalues --    1.39322   1.40245   1.41180   1.42701   1.44145
 Alpha virt. eigenvalues --    1.46779   1.48475   1.48644   1.49362   1.52286
 Alpha virt. eigenvalues --    1.53466   1.54068   1.55512   1.56661   1.59397
 Alpha virt. eigenvalues --    1.61396   1.62710   1.64688   1.66197   1.66629
 Alpha virt. eigenvalues --    1.67947   1.69201   1.69780   1.72483   1.72858
 Alpha virt. eigenvalues --    1.78458   1.80855   1.82009   1.84216   1.84967
 Alpha virt. eigenvalues --    1.85894   1.89703   1.90608   1.90913   1.92628
 Alpha virt. eigenvalues --    1.93227   1.95143   1.95554   1.98003   1.98940
 Alpha virt. eigenvalues --    2.00031   2.01698   2.03123   2.05427   2.06778
 Alpha virt. eigenvalues --    2.11491   2.12109   2.14018   2.15253   2.16387
 Alpha virt. eigenvalues --    2.18093   2.22164   2.22638   2.23184   2.23795
 Alpha virt. eigenvalues --    2.27412   2.29239   2.31062   2.36187   2.38253
 Alpha virt. eigenvalues --    2.40644   2.42604   2.44870   2.45760   2.46397
 Alpha virt. eigenvalues --    2.48884   2.51375   2.53980   2.55427   2.56912
 Alpha virt. eigenvalues --    2.57383   2.61405   2.62052   2.62504   2.64198
 Alpha virt. eigenvalues --    2.65954   2.67753   2.68588   2.70568   2.71360
 Alpha virt. eigenvalues --    2.72928   2.74198   2.74437   2.77593   2.79612
 Alpha virt. eigenvalues --    2.82548   2.83476   2.83861   2.85291   2.87278
 Alpha virt. eigenvalues --    2.87383   2.91208   2.91561   2.93410   2.94614
 Alpha virt. eigenvalues --    2.95538   2.97392   2.98081   2.99231   3.01697
 Alpha virt. eigenvalues --    3.03296   3.04545   3.07846   3.09175   3.13322
 Alpha virt. eigenvalues --    3.14253   3.14340   3.15344   3.16370   3.17460
 Alpha virt. eigenvalues --    3.18112   3.20010   3.20955   3.22543   3.22768
 Alpha virt. eigenvalues --    3.24768   3.25760   3.28029   3.29742   3.32253
 Alpha virt. eigenvalues --    3.33131   3.34051   3.35397   3.38701   3.40633
 Alpha virt. eigenvalues --    3.41578   3.42429   3.42910   3.43543   3.44553
 Alpha virt. eigenvalues --    3.47989   3.49666   3.51170   3.52406   3.53451
 Alpha virt. eigenvalues --    3.57458   3.60256   3.64285   3.69258   3.70956
 Alpha virt. eigenvalues --    3.72626   3.78380   3.79677   3.82873   3.83325
 Alpha virt. eigenvalues --    3.91243   3.92386   3.94828   3.96061   3.97438
 Alpha virt. eigenvalues --    4.04811   4.06049   4.07017   4.09341   4.12789
 Alpha virt. eigenvalues --    4.17374   4.18078   4.18266   4.19386   4.21062
 Alpha virt. eigenvalues --    4.22825   4.28445   4.28965   4.33958   4.36389
 Alpha virt. eigenvalues --    4.38715   4.42339   4.45613   4.50640   4.52954
 Alpha virt. eigenvalues --    4.54412   4.57841   4.61048   4.63150   4.64050
 Alpha virt. eigenvalues --    4.69799   4.71388   4.74834   4.77515   4.81430
 Alpha virt. eigenvalues --    4.84101   4.86676   4.89368   4.90737   4.93967
 Alpha virt. eigenvalues --    4.97176   5.02309   5.04892   5.05916   5.14589
 Alpha virt. eigenvalues --    5.15046   5.16245   5.20792   5.23148   5.25132
 Alpha virt. eigenvalues --    5.26455   5.27958   5.29575   5.31997   5.35155
 Alpha virt. eigenvalues --    5.35343   5.39450   5.45537   5.51191   5.54058
 Alpha virt. eigenvalues --    5.55205   5.59455   5.67166   5.70685   5.76206
 Alpha virt. eigenvalues --    5.82724   5.84572   5.91471   5.92620   5.99104
 Alpha virt. eigenvalues --    6.22072   6.24535   6.36640   6.44308   6.52961
 Alpha virt. eigenvalues --    6.59939   6.63633   6.75120   6.82232   6.93735
 Alpha virt. eigenvalues --    7.00564   7.10148   7.20815  22.17598  22.61437
 Alpha virt. eigenvalues --   22.70393  22.75306  22.86504  22.90371  23.27811
 Alpha virt. eigenvalues --   31.97029  32.05437  43.73976  43.85204
          Condensed to atoms (all electrons):
               1          2          3          4          5          6
     1  C    4.862500   0.432478  -0.005700  -0.049308   0.014801   0.360753
     2  C    0.432478   5.071939   0.388110   0.038343  -0.131181   0.057107
     3  C   -0.005700   0.388110   5.097214   0.368393   0.092037  -0.106641
     4  C   -0.049308   0.038343   0.368393   5.126781   0.333413  -0.064212
     5  C    0.014801  -0.131181   0.092037   0.333413   5.588308   0.251001
     6  C    0.360753   0.057107  -0.106641  -0.064212   0.251001   5.360238
     7  H   -0.038885   0.000945  -0.000105   0.000649  -0.002482  -0.000787
     8  H   -0.034801   0.000536  -0.001991   0.000849  -0.000353  -0.003644
     9  H   -0.054356   0.417292  -0.032702   0.008060  -0.002003   0.009606
    10  H    0.008726  -0.040393   0.425142  -0.061046   0.014540  -0.000850
    11  N    0.005959   0.000823  -0.053221   0.346608  -0.048436  -0.002248
    12  H   -0.069408   0.009520  -0.003385   0.016082  -0.025536   0.427440
    13  N    0.283147  -0.042948   0.001743   0.004090   0.001351  -0.049913
    14  H    0.001068  -0.000997   0.002522  -0.054908   0.007617  -0.002538
    15  H    0.000772  -0.001965   0.001997  -0.021318  -0.019579  -0.001416
    16  C   -0.010485  -0.004204   0.024731  -0.141199   0.208497   0.007562
    17  O    0.000584  -0.000879   0.007247  -0.022916  -0.112759   0.002310
    18  O   -0.001510  -0.000076   0.000786  -0.011179  -0.143529   0.030043
    19  H   -0.000242   0.000035  -0.000056   0.001495   0.022272  -0.004288
               7          8          9         10         11         12
     1  C   -0.038885  -0.034801  -0.054356   0.008726   0.005959  -0.069408
     2  C    0.000945   0.000536   0.417292  -0.040393   0.000823   0.009520
     3  C   -0.000105  -0.001991  -0.032702   0.425142  -0.053221  -0.003385
     4  C    0.000649   0.000849   0.008060  -0.061046   0.346608   0.016082
     5  C   -0.002482  -0.000353  -0.002003   0.014540  -0.048436  -0.025536
     6  C   -0.000787  -0.003644   0.009606  -0.000850  -0.002248   0.427440
     7  H    0.494497  -0.031971   0.003067  -0.000054   0.000002  -0.000164
     8  H   -0.031971   0.489427  -0.000265   0.000018   0.000003   0.002898
     9  H    0.003067  -0.000265   0.546355  -0.006541  -0.000297  -0.000210
    10  H   -0.000054   0.000018  -0.006541   0.548187  -0.002819   0.000036
    11  N    0.000002   0.000003  -0.000297  -0.002819   6.521861  -0.000222
    12  H   -0.000164   0.002898  -0.000210   0.000036  -0.000222   0.518423
    13  N    0.364550   0.365838  -0.002228  -0.000250   0.000018  -0.002105
    14  H    0.000001   0.000001  -0.000106   0.003478   0.342635  -0.000001
    15  H    0.000001   0.000001   0.000005  -0.000246   0.367380  -0.000054
    16  C   -0.000013  -0.000189   0.000070  -0.000010  -0.021899  -0.013029
    17  O   -0.000000   0.000000  -0.000004   0.000133  -0.055544   0.000074
    18  O   -0.000001  -0.000039  -0.000000   0.000009  -0.000602   0.011228
    19  H    0.000000  -0.000002   0.000000  -0.000001   0.000118  -0.000388
              13         14         15         16         17         18
     1  C    0.283147   0.001068   0.000772  -0.010485   0.000584  -0.001510
     2  C   -0.042948  -0.000997  -0.001965  -0.004204  -0.000879  -0.000076
     3  C    0.001743   0.002522   0.001997   0.024731   0.007247   0.000786
     4  C    0.004090  -0.054908  -0.021318  -0.141199  -0.022916  -0.011179
     5  C    0.001351   0.007617  -0.019579   0.208497  -0.112759  -0.143529
     6  C   -0.049913  -0.002538  -0.001416   0.007562   0.002310   0.030043
     7  H    0.364550   0.000001   0.000001  -0.000013  -0.000000  -0.000001
     8  H    0.365838   0.000001   0.000001  -0.000189   0.000000  -0.000039
     9  H   -0.002228  -0.000106   0.000005   0.000070  -0.000004  -0.000000
    10  H   -0.000250   0.003478  -0.000246  -0.000010   0.000133   0.000009
    11  N    0.000018   0.342635   0.367380  -0.021899  -0.055544  -0.000602
    12  H   -0.002105  -0.000001  -0.000054  -0.013029   0.000074   0.011228
    13  N    6.535163   0.000003   0.000003  -0.000387   0.000002  -0.000027
    14  H    0.000003   0.528033  -0.024974   0.000662   0.003643   0.000037
    15  H    0.000003  -0.024974   0.449989  -0.007675   0.018002   0.000262
    16  C   -0.000387   0.000662  -0.007675   4.624443   0.608877   0.408110
    17  O    0.000002   0.003643   0.018002   0.608877   7.994407  -0.076248
    18  O   -0.000027   0.000037   0.000262   0.408110  -0.076248   7.906458
    19  H   -0.000003  -0.000010   0.000037  -0.026408   0.003878   0.281552
              19
     1  C   -0.000242
     2  C    0.000035
     3  C   -0.000056
     4  C    0.001495
     5  C    0.022272
     6  C   -0.004288
     7  H    0.000000
     8  H   -0.000002
     9  H    0.000000
    10  H   -0.000001
    11  N    0.000118
    12  H   -0.000388
    13  N   -0.000003
    14  H   -0.000010
    15  H    0.000037
    16  C   -0.026408
    17  O    0.003878
    18  O    0.281552
    19  H    0.399482
 Mulliken charges:
               1
     1  C    0.293908
     2  C   -0.194488
     3  C   -0.206121
     4  C    0.181323
     5  C   -0.047980
     6  C   -0.269521
     7  H    0.210751
     8  H    0.213684
     9  H    0.114257
    10  H    0.111941
    11  N   -0.400118
    12  H    0.128801
    13  N   -0.458047
    14  H    0.193836
    15  H    0.238777
    16  C    0.342548
    17  O   -0.370806
    18  O   -0.405275
    19  H    0.322529
 Sum of Mulliken charges =  -0.00000
 Mulliken charges with hydrogens summed into heavy atoms:
               1
     1  C    0.293908
     2  C   -0.080231
     3  C   -0.094181
     4  C    0.181323
     5  C   -0.047980
     6  C   -0.140720
    11  N    0.032495
    13  N   -0.033612
    16  C    0.342548
    17  O   -0.370806
    18  O   -0.082745
 Electronic spatial extent (au):  <R**2>=           1844.5966
 Charge=              0.0000 electrons
 Dipole moment (field-independent basis, Debye):
    X=              2.2815    Y=             -0.3410    Z=              0.7732  Tot=              2.4330
 Quadrupole moment (field-independent basis, Debye-Ang):
   XX=            -61.2378   YY=            -55.1574   ZZ=            -67.4236
   XY=              5.0283   XZ=              5.0991   YZ=             -7.4603
 Traceless Quadrupole moment (field-independent basis, Debye-Ang):
   XX=              0.0352   YY=              6.1155   ZZ=             -6.1507
   XY=              5.0283   XZ=              5.0991   YZ=             -7.4603
 Octapole moment (field-independent basis, Debye-Ang**2):
  XXX=             17.8984  YYY=             -0.7878  ZZZ=              0.5891  XYY=             -9.4199
  XXY=            -18.1259  XXZ=             20.5237  XZZ=            -11.3859  YZZ=             -5.2112
  YYZ=              1.0664  XYZ=              4.2087
 Hexadecapole moment (field-independent basis, Debye-Ang**3):
 XXXX=          -1399.5519 YYYY=           -701.3292 ZZZZ=            -76.0685 XXXY=             82.0939
 XXXZ=             60.7282 YYYX=             14.8654 YYYZ=            -47.0760 ZZZX=              4.7984
 ZZZY=             -6.3714 XXYY=           -314.2668 XXZZ=           -271.7142 YYZZ=           -154.8923
 XXYZ=            -57.4673 YYXZ=             14.0182 ZZXY=              6.4991
 N-N= 5.820878352270D+02 E-N=-2.406020071432D+03  KE= 5.287143255789D+02
   1 Symmetry operations used in ECPInt.
 ECPInt:  NShTT=   11781 NPrTT=   36312 LenC2=   11177 LenP2D=   26453.
 LDataN:  DoStor=T MaxTD1= 7 Len=  274
 Calling FoFJK, ICntrl=      2127 FMM=F ISym2X=0 I1Cent= 0 IOpClX= 0 NMat=1 NMatS=1 NMatT=0.
 ***** Axes restored to original set *****
 -------------------------------------------------------------------
 Center     Atomic                   Forces (Hartrees/Bohr)
 Number     Number              X              Y              Z
 -------------------------------------------------------------------
      1        6           0.027671665   -0.007090384    0.003277029
      2        6          -0.018260837   -0.015664798   -0.000800431
      3        6           0.019879330   -0.015185175    0.000185659
      4        6          -0.051641232    0.001560551   -0.004161987
      5        6           0.003450732   -0.042105445   -0.002581771
      6        6          -0.001516668    0.021428863    0.000197526
      7        1           0.006273458    0.007516181    0.004195098
      8        1           0.006527806   -0.007526219    0.003505130
      9        1           0.004261085    0.008130899    0.000110585
     10        1          -0.005069611    0.006800165    0.000257465
     11        7           0.048828451    0.014761475    0.000278852
     12        1           0.003213762   -0.007603237   -0.000028235
     13        7          -0.042878514   -0.000241236   -0.007703005
     14        1          -0.003774006    0.012150916   -0.001128537
     15        1          -0.006250447   -0.010142269    0.002569679
     16        6          -0.048831740   -0.002891508    0.001878000
     17        8           0.070259584   -0.017214895   -0.000663352
     18        8          -0.000180085    0.054585635    0.002273067
     19        1          -0.011962732   -0.001269520   -0.001660772
 -------------------------------------------------------------------
 Cartesian Forces:  Max     0.070259584 RMS     0.020085236

 GradGradGradGradGradGradGradGradGradGradGradGradGradGradGradGradGradGrad
 Berny optimization.
 FormGI is forming the generalized inverse of G from B-inverse, IUseBI=4.
 Internal  Forces:  Max     0.069893542 RMS     0.015119001
 Search for a local minimum.
 Step number   1 out of a maximum of   95
 All quantities printed in internal units (Hartrees-Bohrs-Radians)
 Mixed Optimization -- RFO/linear search
 Second derivative matrix not updated -- first step.
 ITU=  0
     Eigenvalues ---    0.00237   0.00590   0.00766   0.00766   0.01295
     Eigenvalues ---    0.01503   0.01635   0.01710   0.02070   0.02070
     Eigenvalues ---    0.02070   0.02070   0.02070   0.02070   0.05453
     Eigenvalues ---    0.05453   0.16000   0.16000   0.16000   0.16000
     Eigenvalues ---    0.16000   0.16000   0.16000   0.16000   0.22375
     Eigenvalues ---    0.23491   0.24610   0.25000   0.25000   0.25000
     Eigenvalues ---    0.25000   0.25000   0.28519   0.35740   0.35740
     Eigenvalues ---    0.37230   0.37230   0.37230   0.40989   0.41393
     Eigenvalues ---    0.41697   0.45389   0.45389   0.45389   0.45389
     Eigenvalues ---    0.47688   0.47688   0.47688   0.47688   0.55473
     Eigenvalues ---    0.80209
 RFO step:  Lambda=-4.94184022D-02 EMin= 2.36824276D-03
 Linear search not attempted -- first point.
 Maximum step size (   0.300) exceeded in Quadratic search.
    -- Step size scaled by   0.831
 Iteration  1 RMS(Cart)=  0.12880521 RMS(Int)=  0.00719720
 Iteration  2 RMS(Cart)=  0.00861983 RMS(Int)=  0.00036564
 Iteration  3 RMS(Cart)=  0.00003751 RMS(Int)=  0.00036482
 Iteration  4 RMS(Cart)=  0.00000001 RMS(Int)=  0.00036482
 Variable       Old X    -DE/DX   Delta X   Delta X   Delta X     New X
                                 (Linear)    (Quad)   (Total)
    R1        2.64826  -0.00861   0.00000  -0.01586  -0.01591   2.63236
    R2        2.64826  -0.01578   0.00000  -0.02671  -0.02677   2.62149
    R3        2.77790  -0.03007   0.00000  -0.06142  -0.06142   2.71648
    R4        2.64826  -0.01450   0.00000  -0.02494  -0.02492   2.62335
    R5        2.02201   0.00918   0.00000   0.01808   0.01808   2.04009
    R6        2.64826  -0.00531   0.00000  -0.00811  -0.00804   2.64022
    R7        2.02201   0.00845   0.00000   0.01664   0.01664   2.03865
    R8        2.64826   0.01681   0.00000   0.02940   0.02944   2.67770
    R9        2.77790  -0.03911   0.00000  -0.07988  -0.07988   2.69802
   R10        2.64826  -0.00027   0.00000   0.00056   0.00054   2.64880
   R11        2.91018  -0.03359   0.00000  -0.08342  -0.08342   2.82676
   R12        2.02201   0.00817   0.00000   0.01609   0.01609   2.03810
   R13        1.88973   0.01017   0.00000   0.01606   0.01606   1.90579
   R14        1.88973   0.01007   0.00000   0.01590   0.01590   1.90563
   R15        1.88973   0.01184   0.00000   0.01869   0.01869   1.90842
   R16        1.88973   0.00898   0.00000   0.01418   0.01418   1.90391
   R17        2.37803  -0.06989   0.00000  -0.06820  -0.06820   2.30983
   R18        2.70231  -0.05190   0.00000  -0.09389  -0.09389   2.60842
   R19        1.81414   0.00636   0.00000   0.00874   0.00874   1.82288
    A1        2.09440  -0.00433   0.00000  -0.01691  -0.01704   2.07735
    A2        2.09440   0.00173   0.00000   0.00724   0.00722   2.10161
    A3        2.09440   0.00260   0.00000   0.00967   0.00965   2.10404
    A4        2.09440   0.00413   0.00000   0.00664   0.00665   2.10105
    A5        2.09440  -0.00188   0.00000  -0.00256  -0.00256   2.09183
    A6        2.09440  -0.00226   0.00000  -0.00408  -0.00409   2.09031
    A7        2.09440   0.00916   0.00000   0.02655   0.02665   2.12105
    A8        2.09440  -0.00375   0.00000  -0.00999  -0.01005   2.08435
    A9        2.09440  -0.00541   0.00000  -0.01656  -0.01662   2.07777
   A10        2.09440  -0.01281   0.00000  -0.03254  -0.03252   2.06188
   A11        2.09440  -0.01888   0.00000  -0.05389  -0.05405   2.04034
   A12        2.09440   0.03168   0.00000   0.08642   0.08618   2.18058
   A13        2.09440  -0.00385   0.00000  -0.00708  -0.00703   2.08736
   A14        2.09440   0.02875   0.00000   0.07799   0.07796   2.17236
   A15        2.09440  -0.02490   0.00000  -0.07091  -0.07094   2.02346
   A16        2.09440   0.00769   0.00000   0.02333   0.02327   2.11767
   A17        2.09440  -0.00265   0.00000  -0.00692  -0.00689   2.08750
   A18        2.09440  -0.00504   0.00000  -0.01642  -0.01640   2.07800
   A19        1.91063   0.00045   0.00000   0.01123   0.01049   1.92112
   A20        1.91063   0.00835   0.00000   0.04257   0.04185   1.95249
   A21        1.91063   0.00265   0.00000   0.02945   0.02815   1.93879
   A22        1.91063   0.00470   0.00000   0.02156   0.02133   1.93197
   A23        1.91063   0.00468   0.00000   0.02148   0.02125   1.93188
   A24        1.91063  -0.00251   0.00000  -0.00413  -0.00456   1.90607
   A25        2.09440   0.04034   0.00000   0.11196   0.11190   2.20629
   A26        2.09440  -0.03638   0.00000  -0.10095  -0.10100   1.99340
   A27        2.09440  -0.00397   0.00000  -0.01101  -0.01106   2.08334
   A28        1.91063  -0.01379   0.00000  -0.05473  -0.05473   1.85591
    D1        0.00000   0.00043   0.00000   0.00551   0.00536   0.00536
    D2       -3.14159   0.00037   0.00000   0.00456   0.00464  -3.13695
    D3       -3.14159  -0.00120   0.00000  -0.01488  -0.01492   3.12667
    D4        0.00000  -0.00127   0.00000  -0.01583  -0.01564  -0.01564
    D5       -0.00000  -0.00015   0.00000  -0.00222  -0.00227  -0.00228
    D6        3.14159  -0.00061   0.00000  -0.00753  -0.00739   3.13420
    D7        3.14159   0.00149   0.00000   0.01817   0.01804  -3.12356
    D8       -0.00000   0.00102   0.00000   0.01286   0.01292   0.01292
    D9        0.52360  -0.00040   0.00000   0.00122   0.00115   0.52475
   D10        2.61799   0.00226   0.00000   0.02252   0.02279   2.64079
   D11       -2.61799  -0.00203   0.00000  -0.01917  -0.01944  -2.63744
   D12       -0.52360   0.00063   0.00000   0.00213   0.00220  -0.52140
   D13       -0.00000  -0.00030   0.00000  -0.00412  -0.00387  -0.00387
   D14        3.14159  -0.00082   0.00000  -0.01002  -0.00956   3.13203
   D15        3.14159  -0.00024   0.00000  -0.00318  -0.00315   3.13844
   D16       -0.00000  -0.00075   0.00000  -0.00907  -0.00884  -0.00884
   D17       -0.00000  -0.00011   0.00000  -0.00055  -0.00078  -0.00078
   D18        3.14159  -0.00251   0.00000  -0.03058  -0.02920   3.11239
   D19        3.14159   0.00040   0.00000   0.00535   0.00489  -3.13670
   D20       -0.00000  -0.00199   0.00000  -0.02468  -0.02353  -0.02353
   D21        0.00000   0.00040   0.00000   0.00384   0.00383   0.00383
   D22       -3.14159   0.00079   0.00000   0.00907   0.00908  -3.13251
   D23       -3.14159   0.00279   0.00000   0.03386   0.03474  -3.10685
   D24        0.00000   0.00319   0.00000   0.03910   0.04000   0.04000
   D25        0.52360  -0.00197   0.00000  -0.00278  -0.00301   0.52059
   D26        2.61799   0.00666   0.00000   0.06624   0.06701   2.68501
   D27       -2.61799  -0.00437   0.00000  -0.03281  -0.03358  -2.65158
   D28       -0.52360   0.00427   0.00000   0.03621   0.03644  -0.48716
   D29        0.00000  -0.00027   0.00000  -0.00245  -0.00234  -0.00234
   D30       -3.14159   0.00020   0.00000   0.00286   0.00275  -3.13884
   D31       -3.14159  -0.00066   0.00000  -0.00768  -0.00716   3.13444
   D32       -0.00000  -0.00020   0.00000  -0.00237  -0.00206  -0.00207
   D33        0.00000   0.00153   0.00000   0.02451   0.02482   0.02483
   D34       -3.14159   0.00027   0.00000   0.00558   0.00543  -3.13616
   D35       -3.14159   0.00193   0.00000   0.02975   0.02990  -3.11169
   D36        0.00000   0.00067   0.00000   0.01082   0.01051   0.01051
   D37        2.61799   0.00663   0.00000   0.08943   0.08892   2.70692
   D38       -0.52360   0.00537   0.00000   0.07050   0.07101  -0.45259
         Item               Value     Threshold  Converged?
 Maximum Force            0.069894     0.000450     NO 
 RMS     Force            0.015119     0.000300     NO 
 Maximum Displacement     0.471294     0.001800     NO 
 RMS     Displacement     0.126870     0.001200     NO 
 Predicted change in Energy=-2.692129D-02
 GradGradGradGradGradGradGradGradGradGradGradGradGradGradGradGradGradGrad

                          Input orientation:                          
 ---------------------------------------------------------------------
 Center     Atomic      Atomic             Coordinates (Angstroms)
 Number     Number       Type             X           Y           Z
 ---------------------------------------------------------------------
      1          6           0        1.370887   -0.015121   -0.015365
      2          6           0        0.660752    1.183131    0.002009
      3          6           0       -0.727432    1.176521    0.008805
      4          6           0       -1.452405   -0.017716   -0.006023
      5          6           0       -0.731023   -1.237096   -0.029403
      6          6           0        0.670441   -1.212411   -0.032249
      7          1           0        3.169414    0.807195    0.428632
      8          1           0        3.175900   -0.836726    0.402301
      9          1           0        1.192294    2.122734    0.010917
     10          1           0       -1.261784    2.113424    0.031270
     11          7           0       -2.875345    0.089738    0.039888
     12          1           0        1.210791   -2.145576   -0.052709
     13          7           0        2.808143   -0.008945   -0.040908
     14          1           0       -3.172217    0.950420   -0.397116
     15          1           0       -3.325637   -0.705863   -0.383577
     16          6           0       -1.361522   -2.593268   -0.058529
     17          8           0       -2.559037   -2.836106   -0.090533
     18          8           0       -0.458580   -3.637207   -0.071087
     19          1           0       -0.918880   -4.398561    0.301700
 ---------------------------------------------------------------------
                    Distance matrix (angstroms):
                    1          2          3          4          5
     1  C    0.000000
     2  C    1.392983   0.000000
     3  C    2.413200   1.388215   0.000000
     4  C    2.823308   2.430540   1.397143   0.000000
     5  C    2.431346   2.792046   2.413923   1.416978   0.000000
     6  C    1.387232   2.395806   2.768164   2.436075   1.401684
     7  H    2.026830   2.572300   3.936758   4.714935   4.427452
     8  H    2.026710   3.250543   4.409536   4.717914   3.951039
     9  H    2.145462   1.079570   2.140250   3.402388   3.871593
    10  H    3.385828   2.135988   1.078806   2.139972   3.392841
    11  N    4.247885   3.701475   2.407404   1.427730   2.522579
    12  H    2.136788   3.374289   3.846664   3.409190   2.143949
    13  N    1.437497   2.456456   3.729355   4.260700   3.746223
    14  H    4.660235   3.860712   2.488547   2.011963   3.298465
    15  H    4.761307   4.428122   3.232338   2.031033   2.672017
    16  C    3.756963   4.284209   3.823339   2.577691   1.495855
    17  O    4.838172   5.150715   4.412009   3.029043   2.429446
    18  O    4.058271   4.949132   4.821893   3.754017   2.415884
    19  H    4.955614   5.808642   5.586052   4.423929   3.184302
                    6          7          8          9         10
     6  C    0.000000
     7  H    3.245934   0.000000
     8  H    2.570466   1.644145   0.000000
     9  H    3.376001   2.411251   3.584170   0.000000
    10  H    3.846909   4.636772   5.341731   2.454180   0.000000
    11  N    3.778014   6.099588   6.132474   4.547483   2.588234
    12  H    1.078514   3.575856   2.404532   4.268824   4.925419
    13  N    2.453197   1.008498   1.008416   2.675389   4.590639
    14  H    4.424589   6.396770   6.643158   4.537595   2.277245
    15  H    4.043348   6.718238   6.550169   5.344931   3.518518
    16  C    2.456895   5.685936   4.887331   5.363532   4.708605
    17  O    3.615151   6.808695   6.093432   6.218751   5.118158
    18  O    2.675039   5.758886   4.612617   5.992414   5.807355
    19  H    3.576173   6.620434   5.428076   6.860677   6.526611
                   11         12         13         14         15
    11  N    0.000000
    12  H    4.658509   0.000000
    13  N    5.684919   2.667746   0.000000
    14  H    1.009891   5.377226   6.067287   0.000000
    15  H    1.007505   4.770894   6.182749   1.663429   0.000000
    16  C    3.082185   2.610988   4.905625   3.993868   2.743301
    17  O    2.945780   3.832736   6.066460   3.848085   2.282867
    18  O    4.443331   2.238772   4.882283   5.340080   4.112232
    19  H    4.903175   3.120424   5.768606   5.846150   4.460729
                   16         17         18         19
    16  C    0.000000
    17  O    1.222308   0.000000
    18  O    1.380316   2.248125   0.000000
    19  H    1.893351   2.298963   0.964627   0.000000
 Stoichiometry    C7H8N2O2
 Framework group  C1[X(C7H8N2O2)]
 Deg. of freedom    51
 Full point group                 C1      NOp   1
 Largest Abelian subgroup         C1      NOp   1
 Largest concise Abelian subgroup C1      NOp   1
                         Standard orientation:                         
 ---------------------------------------------------------------------
 Center     Atomic      Atomic             Coordinates (Angstroms)
 Number     Number       Type             X           Y           Z
 ---------------------------------------------------------------------
      1          6           0        1.932140   -0.469444   -0.032935
      2          6           0        2.137615    0.908143   -0.012107
      3          6           0        1.056839    1.778796    0.019961
      4          6           0       -0.259188    1.309733    0.027721
      5          6           0       -0.469384   -0.091311    0.000849
      6          6           0        0.633172   -0.956340   -0.027653
      7          1           0        3.854408   -0.968542    0.371818
      8          1           0        2.821815   -2.247911    0.358330
      9          1           0        3.142852    1.301720   -0.020263
     10          1           0        1.233875    2.842689    0.044746
     11          7           0       -1.294217    2.290599    0.098628
     12          1           0        0.463184   -2.021127   -0.050572
     13          7           0        3.050349   -1.371294   -0.084635
     14          1           0       -0.989828    3.147987   -0.339680
     15          1           0       -2.153489    1.959700   -0.310302
     16          6           0       -1.814568   -0.745537   -0.006127
     17          8           0       -2.897226   -0.178246   -0.014453
     18          8           0       -1.773049   -2.125073   -0.026859
     19          1           0       -2.603294   -2.427346    0.360219
 ---------------------------------------------------------------------
 Rotational constants (GHZ):           1.6734850           0.9238772           0.5964562
 Standard basis: def2TZVP (5D, 7F)
 There are   444 symmetry adapted cartesian basis functions of A   symmetry.
 There are   389 symmetry adapted basis functions of A   symmetry.
   389 basis functions,   625 primitive gaussians,   444 cartesian basis functions
    40 alpha electrons       40 beta electrons
       nuclear repulsion energy       587.0602324377 Hartrees.
 NAtoms=   19 NActive=   19 NUniq=   19 SFac= 1.00D+00 NAtFMM=   60 NAOKFM=F Big=F
 Integral buffers will be    131072 words long.
 Raffenetti 2 integral format.
 Two-electron integral symmetry is turned on.
 One-electron integrals computed using PRISM.
   1 Symmetry operations used in ECPInt.
 ECPInt:  NShTT=   11781 NPrTT=   36312 LenC2=   11196 LenP2D=   26527.
 LDataN:  DoStor=T MaxTD1= 6 Len=  172
 NBasis=   389 RedAO= T EigKep=  7.46D-06  NBF=   389
 NBsUse=   389 1.00D-06 EigRej= -1.00D+00 NBFU=   389
 Initial guess from the checkpoint file:  "C6H4-NH2-2.chk"
 B after Tr=     0.000000    0.000000   -0.000000
         Rot=    0.999999   -0.000607   -0.000108   -0.001525 Ang=  -0.19 deg.
 ExpMin= 9.52D-02 ExpMax= 2.70D+04 ExpMxC= 9.22D+02 IAcc=2 IRadAn=         4 AccDes= 0.00D+00
 Harris functional with IExCor=  402 and IRadAn=       4 diagonalized for initial guess.
 HarFok:  IExCor=  402 AccDes= 0.00D+00 IRadAn=         4 IDoV= 1 UseB2=F ITyADJ=14
 ICtDFT=  3500011 ScaDFX=  1.000000  1.000000  1.000000  1.000000
 FoFCou: FMM=F IPFlag=           0 FMFlag=      100000 FMFlg1=           0
         NFxFlg=           0 DoJE=T BraDBF=F KetDBF=T FulRan=T
         wScrn=  0.000000 ICntrl=       500 IOpCl=  0 I1Cent=   200000004 NGrid=           0
         NMat0=    1 NMatS0=      1 NMatT0=    0 NMatD0=    1 NMtDS0=    0 NMtDT0=    0
 Petite list used in FoFCou.
 Requested convergence on RMS density matrix=1.00D-08 within 128 cycles.
 Requested convergence on MAX density matrix=1.00D-06.
 Requested convergence on             energy=1.00D-06.
 No special actions if energy rises.
 Integral accuracy reduced to 1.0D-05 until final iterations.
 Initial convergence to 1.0D-05 achieved.  Increase integral accuracy.
 SCF Done:  E(RB3LYP) =  -531.748619952     A.U. after   13 cycles
            NFock= 13  Conv=0.69D-08     -V/T= 2.0051
   1 Symmetry operations used in ECPInt.
 ECPInt:  NShTT=   11781 NPrTT=   36312 LenC2=   11196 LenP2D=   26527.
 LDataN:  DoStor=T MaxTD1= 7 Len=  274
 Calling FoFJK, ICntrl=      2127 FMM=F ISym2X=0 I1Cent= 0 IOpClX= 0 NMat=1 NMatS=1 NMatT=0.
 ***** Axes restored to original set *****
 -------------------------------------------------------------------
 Center     Atomic                   Forces (Hartrees/Bohr)
 Number     Number              X              Y              Z
 -------------------------------------------------------------------
      1        6           0.019614456   -0.004058536    0.001886106
      2        6          -0.009417061   -0.001544920   -0.000603387
      3        6           0.011873832   -0.003667618    0.000458565
      4        6          -0.021789326   -0.000266252   -0.001172129
      5        6           0.000105472   -0.014245613   -0.001384914
      6        6           0.001834273    0.010401947   -0.000269289
      7        1           0.003276734    0.001489056    0.000055947
      8        1           0.003217949   -0.001614275   -0.000278218
      9        1           0.001155245    0.002699066    0.000053610
     10        1          -0.001821458    0.002403550    0.000115715
     11        7           0.024850846   -0.006563785   -0.005369773
     12        1          -0.000141768   -0.000672329    0.000398881
     13        7          -0.020279223    0.000420620    0.000493936
     14        1          -0.002735795    0.000201779    0.001577857
     15        1          -0.003937643   -0.005071307    0.002738471
     16        6          -0.015841656   -0.001099695   -0.004379597
     17        8           0.015272881    0.009695013    0.003649304
     18        8          -0.000789908    0.015190808    0.007902910
     19        1          -0.004447850   -0.003697509   -0.005873995
 -------------------------------------------------------------------
 Cartesian Forces:  Max     0.024850846 RMS     0.007970918

 GradGradGradGradGradGradGradGradGradGradGradGradGradGradGradGradGradGrad
 Berny optimization.
 Using GEDIIS/GDIIS optimizer.
 FormGI is forming the generalized inverse of G from B-inverse, IUseBI=4.
 Internal  Forces:  Max     0.025053093 RMS     0.006385815
 Search for a local minimum.
 Step number   2 out of a maximum of   95
 All quantities printed in internal units (Hartrees-Bohrs-Radians)
 Mixed Optimization -- RFO/linear search
 Update second derivatives using D2CorX and points    1    2
 DE= -2.04D-02 DEPred=-2.69D-02 R= 7.59D-01
 TightC=F SS=  1.41D+00  RLast= 3.43D-01 DXNew= 5.0454D-01 1.0291D+00
 Trust test= 7.59D-01 RLast= 3.43D-01 DXMaxT set to 5.05D-01
 ITU=  1  0
 Use linear search instead of GDIIS.
     Eigenvalues ---    0.00237   0.00556   0.00764   0.00766   0.01272
     Eigenvalues ---    0.01499   0.01625   0.01705   0.02070   0.02070
     Eigenvalues ---    0.02070   0.02070   0.02070   0.02072   0.04827
     Eigenvalues ---    0.05116   0.15671   0.16000   0.16000   0.16000
     Eigenvalues ---    0.16000   0.16000   0.16000   0.16073   0.22077
     Eigenvalues ---    0.22566   0.23689   0.24653   0.24991   0.24995
     Eigenvalues ---    0.24998   0.27027   0.32601   0.35737   0.36843
     Eigenvalues ---    0.37215   0.37230   0.37877   0.40674   0.41290
     Eigenvalues ---    0.44139   0.45239   0.45389   0.45389   0.47381
     Eigenvalues ---    0.47628   0.47688   0.47688   0.55363   0.55543
     Eigenvalues ---    0.78393
 RFO step:  Lambda=-1.63126408D-02 EMin= 2.37382638D-03
 Quartic linear search produced a step of  0.05643.
 Iteration  1 RMS(Cart)=  0.09049224 RMS(Int)=  0.01100744
 Iteration  2 RMS(Cart)=  0.01215895 RMS(Int)=  0.00086728
 Iteration  3 RMS(Cart)=  0.00041021 RMS(Int)=  0.00076762
 Iteration  4 RMS(Cart)=  0.00000038 RMS(Int)=  0.00076762
 Variable       Old X    -DE/DX   Delta X   Delta X   Delta X     New X
                                 (Linear)    (Quad)   (Total)
    R1        2.63236   0.00374  -0.00090   0.00478   0.00387   2.63623
    R2        2.62149  -0.00083  -0.00151  -0.00799  -0.00950   2.61198
    R3        2.71648  -0.01379  -0.00347  -0.05312  -0.05659   2.65989
    R4        2.62335  -0.00403  -0.00141  -0.01496  -0.01639   2.60696
    R5        2.04009   0.00292   0.00102   0.01222   0.01324   2.05333
    R6        2.64022   0.00146  -0.00045   0.00059   0.00013   2.64035
    R7        2.03865   0.00299   0.00094   0.01205   0.01299   2.05164
    R8        2.67770  -0.01301   0.00166  -0.02151  -0.01983   2.65787
    R9        2.69802  -0.01901  -0.00451  -0.07204  -0.07655   2.62147
   R10        2.64880   0.00342   0.00003   0.00750   0.00754   2.65634
   R11        2.82676  -0.01579  -0.00471  -0.07433  -0.07904   2.74771
   R12        2.03810   0.00050   0.00091   0.00536   0.00627   2.04437
   R13        1.90579   0.00240   0.00091   0.00904   0.00995   1.91573
   R14        1.90563   0.00238   0.00090   0.00894   0.00984   1.91547
   R15        1.90842   0.00029   0.00105   0.00533   0.00638   1.91480
   R16        1.90391   0.00461   0.00080   0.01314   0.01394   1.91785
   R17        2.30983  -0.01698  -0.00385  -0.03857  -0.04242   2.26740
   R18        2.60842  -0.01214  -0.00530  -0.05274  -0.05804   2.55038
   R19        1.82288   0.00277   0.00049   0.00717   0.00767   1.83055
    A1        2.07735  -0.00403  -0.00096  -0.01779  -0.01891   2.05845
    A2        2.10161   0.00162   0.00041   0.00676   0.00687   2.10848
    A3        2.10404   0.00239   0.00054   0.01032   0.01057   2.11461
    A4        2.10105   0.00116   0.00038   0.00809   0.00852   2.10956
    A5        2.09183  -0.00025  -0.00014  -0.00194  -0.00212   2.08971
    A6        2.09031  -0.00091  -0.00023  -0.00614  -0.00640   2.08391
    A7        2.12105   0.00047   0.00150   0.00756   0.00913   2.13018
    A8        2.08435   0.00016  -0.00057  -0.00070  -0.00132   2.08303
    A9        2.07777  -0.00063  -0.00094  -0.00690  -0.00788   2.06990
   A10        2.06188  -0.00018  -0.00184  -0.01133  -0.01333   2.04855
   A11        2.04034   0.01481  -0.00305   0.04435   0.04088   2.08122
   A12        2.18058  -0.01466   0.00486  -0.03408  -0.02948   2.15110
   A13        2.08736   0.00251  -0.00040   0.00649   0.00616   2.09352
   A14        2.17236  -0.02505   0.00440  -0.07619  -0.07188   2.10047
   A15        2.02346   0.02254  -0.00400   0.06962   0.06548   2.08893
   A16        2.11767   0.00007   0.00131   0.00694   0.00835   2.12602
   A17        2.08750   0.00043  -0.00039   0.00037  -0.00009   2.08742
   A18        2.07800  -0.00050  -0.00093  -0.00735  -0.00833   2.06967
   A19        1.92112   0.00520   0.00059   0.04763   0.04554   1.96667
   A20        1.95249   0.00366   0.00236   0.04595   0.04568   1.99817
   A21        1.93879  -0.00047   0.00159   0.03053   0.02807   1.96685
   A22        1.93197   0.00397   0.00120   0.03534   0.03567   1.96764
   A23        1.93188   0.00385   0.00120   0.03466   0.03498   1.96687
   A24        1.90607  -0.00185  -0.00026   0.00158  -0.00016   1.90592
   A25        2.20629  -0.00798   0.00631  -0.00285   0.00346   2.20975
   A26        1.99340   0.00083  -0.00570  -0.02182  -0.02753   1.96587
   A27        2.08334   0.00715  -0.00062   0.02476   0.02413   2.10747
   A28        1.85591  -0.00159  -0.00309  -0.02255  -0.02564   1.83027
    D1        0.00536   0.00025   0.00030   0.00872   0.00903   0.01439
    D2       -3.13695   0.00022   0.00026   0.00899   0.00913  -3.12782
    D3        3.12667  -0.00090  -0.00084  -0.03090  -0.03157   3.09510
    D4       -0.01564  -0.00092  -0.00088  -0.03063  -0.03147  -0.04712
    D5       -0.00228  -0.00007  -0.00013  -0.00490  -0.00499  -0.00727
    D6        3.13420  -0.00039  -0.00042  -0.01261  -0.01329   3.12091
    D7       -3.12356   0.00109   0.00102   0.03482   0.03581  -3.08775
    D8        0.01292   0.00077   0.00073   0.02711   0.02750   0.04042
    D9        0.52475  -0.00069   0.00007   0.00223   0.00202   0.52677
   D10        2.64079   0.00222   0.00129   0.05119   0.05330   2.69408
   D11       -2.63744  -0.00193  -0.00110  -0.03833  -0.04025  -2.67768
   D12       -0.52140   0.00098   0.00012   0.01063   0.01104  -0.51037
   D13       -0.00387  -0.00019  -0.00022  -0.00612  -0.00636  -0.01023
   D14        3.13203  -0.00051  -0.00054  -0.01390  -0.01477   3.11726
   D15        3.13844  -0.00017  -0.00018  -0.00639  -0.00647   3.13198
   D16       -0.00884  -0.00049  -0.00050  -0.01417  -0.01487  -0.02371
   D17       -0.00078  -0.00007  -0.00004  -0.00053  -0.00071  -0.00149
   D18        3.11239  -0.00146  -0.00165  -0.04046  -0.04304   3.06935
   D19       -3.13670   0.00025   0.00028   0.00720   0.00761  -3.12909
   D20       -0.02353  -0.00115  -0.00133  -0.03273  -0.03472  -0.05825
   D21        0.00383   0.00024   0.00022   0.00433   0.00471   0.00854
   D22       -3.13251   0.00079   0.00051   0.02418   0.02424  -3.10828
   D23       -3.10685   0.00121   0.00196   0.04634   0.04762  -3.05923
   D24        0.04000   0.00176   0.00226   0.06619   0.06715   0.10714
   D25        0.52059  -0.00076  -0.00017   0.03598   0.03463   0.55521
   D26        2.68501   0.00503   0.00378   0.14291   0.14831   2.83331
   D27       -2.65158  -0.00195  -0.00190  -0.00643  -0.00994  -2.66152
   D28       -0.48716   0.00384   0.00206   0.10050   0.10374  -0.38342
   D29       -0.00234  -0.00017  -0.00013  -0.00165  -0.00188  -0.00422
   D30       -3.13884   0.00014   0.00016   0.00601   0.00632  -3.13252
   D31        3.13444  -0.00081  -0.00040  -0.02026  -0.02168   3.11276
   D32       -0.00207  -0.00050  -0.00012  -0.01260  -0.01348  -0.01554
   D33        0.02483  -0.00006   0.00140   0.00874   0.01016   0.03498
   D34       -3.13616   0.00018   0.00031   0.01432   0.01461  -3.12156
   D35       -3.11169   0.00052   0.00169   0.02808   0.02979  -3.08190
   D36        0.01051   0.00075   0.00059   0.03367   0.03424   0.04475
   D37        2.70692   0.00673   0.00502   0.24701   0.25199   2.95890
   D38       -0.45259   0.00677   0.00401   0.25189   0.25594  -0.19665
         Item               Value     Threshold  Converged?
 Maximum Force            0.025053     0.000450     NO 
 RMS     Force            0.006386     0.000300     NO 
 Maximum Displacement     0.344672     0.001800     NO 
 RMS     Displacement     0.093108     0.001200     NO 
 Predicted change in Energy=-9.803668D-03
 GradGradGradGradGradGradGradGradGradGradGradGradGradGradGradGradGradGrad

                          Input orientation:                          
 ---------------------------------------------------------------------
 Center     Atomic      Atomic             Coordinates (Angstroms)
 Number     Number       Type             X           Y           Z
 ---------------------------------------------------------------------
      1          6           0        1.400678   -0.010708    0.018609
      2          6           0        0.666596    1.175256   -0.008252
      3          6           0       -0.712694    1.153749   -0.023715
      4          6           0       -1.435612   -0.041907   -0.025509
      5          6           0       -0.701451   -1.241505   -0.012687
      6          6           0        0.703519   -1.204193    0.011620
      7          1           0        3.198809    0.843579    0.404455
      8          1           0        3.223757   -0.808819    0.404462
      9          1           0        1.185291    2.129998   -0.016582
     10          1           0       -1.259557    2.091638   -0.021547
     11          7           0       -2.820254    0.003196    0.045991
     12          1           0        1.246203   -2.140063    0.012486
     13          7           0        2.807479    0.011197   -0.021821
     14          1           0       -3.208048    0.825326   -0.401701
     15          1           0       -3.284290   -0.853296   -0.238758
     16          6           0       -1.387162   -2.522973   -0.055517
     17          8           0       -2.571310   -2.698509   -0.137024
     18          8           0       -0.535920   -3.569327   -0.011246
     19          1           0       -1.101272   -4.344072    0.124755
 ---------------------------------------------------------------------
                    Distance matrix (angstroms):
                    1          2          3          4          5
     1  C    0.000000
     2  C    1.395031   0.000000
     3  C    2.413315   1.379543   0.000000
     4  C    2.836805   2.429210   1.397214   0.000000
     5  C    2.436142   2.777104   2.395306   1.406483   0.000000
     6  C    1.382203   2.379818   2.750781   2.434784   1.405675
     7  H    2.027797   2.586976   3.947073   4.737807   4.442253
     8  H    2.027185   3.262815   4.419350   4.741598   3.970955
     9  H    2.151802   1.086575   2.134352   3.403878   3.863527
    10  H    3.390918   2.133072   1.085680   2.140800   3.379557
    11  N    4.221044   3.678966   2.402175   1.387220   2.458059
    12  H    2.134960   3.365668   3.832465   3.405267   2.145087
    13  N    1.407553   2.436925   3.700952   4.243426   3.725847
    14  H    4.702762   3.910258   2.545099   2.008767   3.272026
    15  H    4.767087   4.447208   3.269187   2.030133   2.621617
    16  C    3.753535   4.230491   3.738209   2.481721   1.454027
    17  O    4.798456   5.050413   4.278690   2.891329   2.373751
    18  O    4.051552   4.894601   4.726399   3.640377   2.333700
    19  H    5.004904   5.797071   5.513536   4.317753   3.131241
                    6          7          8          9         10
     6  C    0.000000
     7  H    3.251794   0.000000
     8  H    2.581132   1.652586   0.000000
     9  H    3.368936   2.426190   3.601287   0.000000
    10  H    3.836309   4.649318   5.356701   2.445154   0.000000
    11  N    3.725043   6.088010   6.108841   4.535592   2.608050
    12  H    1.081832   3.587260   2.415901   4.270595   4.918058
    13  N    2.430008   1.013761   1.013622   2.668491   4.568263
    14  H    4.426075   6.457402   6.684942   4.599121   2.354715
    15  H    4.011040   6.732287   6.539907   5.378342   3.580414
    16  C    2.472780   5.707573   4.940697   5.316876   4.616500
    17  O    3.602718   6.792191   6.119390   6.118908   4.967851
    18  O    2.670317   5.796098   4.682776   5.953562   5.707038
    19  H    3.623385   6.743935   5.593043   6.867455   6.439319
                   11         12         13         14         15
    11  N    0.000000
    12  H    4.596821   0.000000
    13  N    5.628148   2.658323   0.000000
    14  H    1.013267   5.367070   6.082244   0.000000
    15  H    1.014884   4.716383   6.156628   1.688235   0.000000
    16  C    2.906129   2.661928   4.900834   3.827085   2.533869
    17  O    2.719316   3.861039   6.023882   3.590670   1.980783
    18  O    4.240800   2.284583   4.898834   5.158072   3.870675
    19  H    4.675451   3.221941   5.853904   5.606990   4.133186
                   16         17         18         19
    16  C    0.000000
    17  O    1.199859   0.000000
    18  O    1.349604   2.217421   0.000000
    19  H    1.852196   2.222029   0.968685   0.000000
 Stoichiometry    C7H8N2O2
 Framework group  C1[X(C7H8N2O2)]
 Deg. of freedom    51
 Full point group                 C1      NOp   1
 Largest Abelian subgroup         C1      NOp   1
 Largest concise Abelian subgroup C1      NOp   1
                         Standard orientation:                         
 ---------------------------------------------------------------------
 Center     Atomic      Atomic             Coordinates (Angstroms)
 Number     Number       Type             X           Y           Z
 ---------------------------------------------------------------------
      1          6           0        1.964192   -0.422249   -0.013810
      2          6           0        2.091334    0.966944   -0.023162
      3          6           0        0.976939    1.779863   -0.002481
      4          6           0       -0.319813    1.259974    0.016382
      5          6           0       -0.455404   -0.139950    0.011718
      6          6           0        0.689197   -0.955827   -0.000817
      7          1           0        3.922223   -0.827506    0.323594
      8          1           0        2.947661   -2.162147    0.325341
      9          1           0        3.079839    1.417457   -0.046451
     10          1           0        1.104873    2.857872    0.012644
     11          7           0       -1.396499    2.128039    0.124040
     12          1           0        0.559208   -2.029754   -0.012803
     13          7           0        3.099572   -1.250587   -0.091085
     14          1           0       -1.221042    3.024463   -0.314538
     15          1           0       -2.288620    1.727382   -0.147223
     16          6           0       -1.774992   -0.750158   -0.011291
     17          8           0       -2.827740   -0.176694   -0.061516
     18          8           0       -1.724201   -2.098601    0.012197
     19          1           0       -2.638844   -2.379157    0.164073
 ---------------------------------------------------------------------
 Rotational constants (GHZ):           1.7855202           0.9280757           0.6117571
 Standard basis: def2TZVP (5D, 7F)
 There are   444 symmetry adapted cartesian basis functions of A   symmetry.
 There are   389 symmetry adapted basis functions of A   symmetry.
   389 basis functions,   625 primitive gaussians,   444 cartesian basis functions
    40 alpha electrons       40 beta electrons
       nuclear repulsion energy       594.5847635452 Hartrees.
 NAtoms=   19 NActive=   19 NUniq=   19 SFac= 1.00D+00 NAtFMM=   60 NAOKFM=F Big=F
 Integral buffers will be    131072 words long.
 Raffenetti 2 integral format.
 Two-electron integral symmetry is turned on.
 One-electron integrals computed using PRISM.
   1 Symmetry operations used in ECPInt.
 ECPInt:  NShTT=   11781 NPrTT=   36312 LenC2=   11219 LenP2D=   26641.
 LDataN:  DoStor=T MaxTD1= 6 Len=  172
 NBasis=   389 RedAO= T EigKep=  7.62D-06  NBF=   389
 NBsUse=   389 1.00D-06 EigRej= -1.00D+00 NBFU=   389
 Initial guess from the checkpoint file:  "C6H4-NH2-2.chk"
 B after Tr=    -0.000000   -0.000000    0.000000
         Rot=    0.999885   -0.000258   -0.000026   -0.015176 Ang=  -1.74 deg.
 ExpMin= 9.52D-02 ExpMax= 2.70D+04 ExpMxC= 9.22D+02 IAcc=2 IRadAn=         4 AccDes= 0.00D+00
 Harris functional with IExCor=  402 and IRadAn=       4 diagonalized for initial guess.
 HarFok:  IExCor=  402 AccDes= 0.00D+00 IRadAn=         4 IDoV= 1 UseB2=F ITyADJ=14
 ICtDFT=  3500011 ScaDFX=  1.000000  1.000000  1.000000  1.000000
 FoFCou: FMM=F IPFlag=           0 FMFlag=      100000 FMFlg1=           0
         NFxFlg=           0 DoJE=T BraDBF=F KetDBF=T FulRan=T
         wScrn=  0.000000 ICntrl=       500 IOpCl=  0 I1Cent=   200000004 NGrid=           0
         NMat0=    1 NMatS0=      1 NMatT0=    0 NMatD0=    1 NMtDS0=    0 NMtDT0=    0
 Petite list used in FoFCou.
 Requested convergence on RMS density matrix=1.00D-08 within 128 cycles.
 Requested convergence on MAX density matrix=1.00D-06.
 Requested convergence on             energy=1.00D-06.
 No special actions if energy rises.
 Integral accuracy reduced to 1.0D-05 until final iterations.
 Initial convergence to 1.0D-05 achieved.  Increase integral accuracy.
 SCF Done:  E(RB3LYP) =  -531.756621533     A.U. after   13 cycles
            NFock= 13  Conv=0.99D-08     -V/T= 2.0044
   1 Symmetry operations used in ECPInt.
 ECPInt:  NShTT=   11781 NPrTT=   36312 LenC2=   11219 LenP2D=   26641.
 LDataN:  DoStor=T MaxTD1= 7 Len=  274
 Calling FoFJK, ICntrl=      2127 FMM=F ISym2X=0 I1Cent= 0 IOpClX= 0 NMat=1 NMatS=1 NMatT=0.
 ***** Axes restored to original set *****
 -------------------------------------------------------------------
 Center     Atomic                   Forces (Hartrees/Bohr)
 Number     Number              X              Y              Z
 -------------------------------------------------------------------
      1        6           0.004012623   -0.003708379   -0.000516139
      2        6          -0.003346015    0.004960673   -0.000532168
      3        6           0.002006891    0.006967701   -0.000157288
      4        6          -0.004522926   -0.000262024    0.002823199
      5        6           0.005699766    0.005477214   -0.001225436
      6        6          -0.000400092   -0.000347613    0.000041248
      7        1          -0.000250032   -0.002032853   -0.002093639
      8        1          -0.000328666    0.001879993   -0.002416706
      9        1          -0.000781387   -0.001265866    0.000118369
     10        1           0.000693612   -0.000870569   -0.000089163
     11        7          -0.002498832    0.002576020   -0.009679644
     12        1          -0.000569252    0.000722335    0.000285419
     13        7           0.002602783    0.000797678    0.005251310
     14        1          -0.000509132   -0.002025512    0.004150495
     15        1           0.002265940    0.001492592    0.003401781
     16        6           0.021048904    0.004313571   -0.001076958
     17        8          -0.027683624   -0.005005723    0.000075116
     18        8           0.000996838   -0.010796318    0.005516145
     19        1           0.001562600   -0.002872919   -0.003875941
 -------------------------------------------------------------------
 Cartesian Forces:  Max     0.027683624 RMS     0.005687926

 GradGradGradGradGradGradGradGradGradGradGradGradGradGradGradGradGradGrad
 Berny optimization.
 Using GEDIIS/GDIIS optimizer.
 FormGI is forming the generalized inverse of G from B-inverse, IUseBI=4.
 Internal  Forces:  Max     0.028048139 RMS     0.004227652
 Search for a local minimum.
 Step number   3 out of a maximum of   95
 All quantities printed in internal units (Hartrees-Bohrs-Radians)
 Mixed Optimization -- RFO/linear search
 Update second derivatives using D2CorX and points    2    3
 DE= -8.00D-03 DEPred=-9.80D-03 R= 8.16D-01
 TightC=F SS=  1.41D+00  RLast= 4.81D-01 DXNew= 8.4853D-01 1.4415D+00
 Trust test= 8.16D-01 RLast= 4.81D-01 DXMaxT set to 8.49D-01
 ITU=  1  1  0
 Use linear search instead of GDIIS.
     Eigenvalues ---    0.00238   0.00560   0.00766   0.00784   0.01255
     Eigenvalues ---    0.01508   0.01628   0.01733   0.02069   0.02070
     Eigenvalues ---    0.02070   0.02071   0.02071   0.02080   0.03668
     Eigenvalues ---    0.04483   0.15604   0.15999   0.15999   0.16000
     Eigenvalues ---    0.16000   0.16000   0.16004   0.16280   0.22346
     Eigenvalues ---    0.22888   0.24416   0.24723   0.24948   0.24957
     Eigenvalues ---    0.25447   0.30451   0.31934   0.35754   0.36936
     Eigenvalues ---    0.37225   0.37232   0.37828   0.41226   0.41964
[...]
 -0.00341263,-0.03008026,-0.25385407,0.00395888,0.00055450,0.65312071,0
 .00102350,0.00177189,-0.00419947,0.00080471,-0.00069162,0.00258832,-0.
 00084607,0.00062675,-0.07035794,0.01649067,-0.01164672,0.16557061,-0.0
 2129916,-0.07494164,0.00003573,-0.04360121,0.02476163,-0.00212734,0.05
 180274,0.01913538,0.00086766,-0.17329994,0.03643322,-0.00221841,0.6698
 9021,-0.03179482,0.01243524,-0.00007867,0.01205440,-0.01096386,0.00014
 285,-0.01122717,-0.04038005,0.00007838,0.07014470,-0.23672579,0.006908
 29,-0.01938415,0.62452455,-0.00069022,-0.00312452,0.00529996,-0.001834
 17,0.00133689,-0.00450795,0.00187564,0.00145394,0.00957164,-0.00441228
 ,0.00243367,-0.07055475,0.01890458,-0.00374553,0.13737548,-0.17780527,
 -0.04843326,-0.00114444,0.05846053,-0.01889434,0.00193909,-0.04428362,
 -0.02633110,-0.00077230,-0.01811986,0.07023506,-0.00301977,-0.29819146
 ,-0.01295827,-0.00704258,0.67418375,-0.11833010,-0.28691729,-0.0008172
 0,0.02405747,-0.05563678,0.00256766,-0.02591819,-0.01960034,-0.0003158
 8,0.03865092,0.03354048,-0.00056296,0.02422170,-0.11278112,0.00159614,
 -0.01054619,0.73095779,-0.00172542,0.00304379,-0.06829521,0.00142079,0
 .00062812,0.00902870,-0.00156944,-0.00091820,-0.00391096,-0.00137884,0
 .00261057,0.00502505,-0.00678961,0.00093052,-0.05433889,0.01538622,-0.
 01123948,0.12901925,-0.01754537,-0.03414614,-0.01598263,0.00265053,-0.
 00184790,0.00083570,-0.00059648,0.00002202,0.00062575,0.00027208,0.000
 19435,-0.00019551,0.00019937,-0.00130768,0.00067486,-0.00588956,0.0024
 3677,-0.00105941,0.12362894,-0.00282481,0.00093599,0.00068735,0.002844
 08,0.00175254,0.00046483,-0.00055054,-0.00033183,0.00077298,-0.0004607
 0,0.00069306,0.00038363,0.00044171,-0.00040594,0.00011044,0.00027727,0
 .00129288,-0.00071685,0.12432073,0.32534310,0.01117537,0.00596018,-0.0
 0427622,0.00003376,0.00003998,0.00048713,-0.00084251,-0.00058290,-0.00
 037318,0.00101693,0.00055244,-0.00007569,0.00073665,0.00078108,0.00145
 141,0.00032165,-0.00109181,0.00086082,0.07871626,0.14564149,0.08821102
 ,-0.01841536,0.03504022,-0.01302688,-0.00633192,-0.00266155,-0.0007897
 6,0.00026347,0.00197560,0.00025491,0.00002770,-0.00041773,-0.00008287,
 -0.00067582,-0.00018435,0.00063332,0.00299813,0.00202069,0.00071240,0.
 00816397,-0.01404749,0.00703574,0.13656610,0.00068059,0.00258552,-0.00
 022080,-0.00096936,0.00118320,0.00052880,-0.00011358,-0.00007590,-0.00
 005752,0.00043085,-0.00005473,-0.00029219,-0.00001887,-0.00030797,-0.0
 0083220,-0.00259714,0.00185667,-0.00043426,0.01448890,-0.02186907,0.01
 452408,-0.14233188,0.34158236,0.01053281,-0.00413209,-0.00439479,-0.00
 016699,0.00079065,0.00139596,0.00086459,-0.00014402,0.00135375,0.00054
 733,-0.00086567,0.00001156,-0.00092964,0.00002808,-0.00067418,-0.00001
 473,-0.00048515,0.00050867,0.00923337,-0.01690293,0.00266730,0.0705496
 8,-0.11439384,0.06097573,0.01020321,0.01342246,-0.00028502,-0.12022681
 ,-0.11167867,0.00141575,-0.01108477,-0.02945367,0.00054874,-0.00521171
 ,0.00147922,-0.00018137,-0.00095433,0.00022314,-0.00001482,-0.00097830
 ,0.00345242,-0.00020012,-0.00005223,-0.00022873,-0.00041760,0.00011544
 ,-0.00016234,0.00003441,0.12522155,-0.01735063,-0.01904106,0.00035682,
 -0.11199045,-0.26998510,0.00528022,0.00095078,0.00258969,-0.00004297,0
 .00110089,0.00209132,0.00026872,0.00105405,0.00046898,0.00002161,0.004
 21715,-0.00361124,0.00029003,0.00132943,-0.00045982,0.00056549,0.00008
 346,0.00031436,0.00004647,0.12296107,0.28602557,0.00048887,0.00098167,
 0.00499610,0.00208890,0.00551981,-0.03536208,-0.00042896,-0.00088571,0
 .00218262,-0.00035453,0.00014714,0.00855955,-0.00006609,-0.00001838,-0
 .00064052,-0.00030110,0.00025973,0.00486361,-0.00063703,-0.00066993,0.
 00010900,-0.00006092,0.00007127,-0.00057277,-0.00132682,-0.00613202,0.
 02371706,-0.00484189,-0.00186422,-0.00001960,-0.01248028,0.02932697,-0
 .00091571,-0.12576844,0.11688218,-0.00417858,0.00923778,-0.01387444,0.
 00036514,-0.00084875,-0.00232098,-0.00007305,-0.00088379,-0.00073288,-
 0.00002166,0.00008392,0.00004946,-0.00000766,-0.00047688,-0.00001672,0
 .00004682,0.00107519,-0.00025320,0.00007546,0.13286491,-0.00102957,0.0
 0218381,0.00009932,-0.00140921,0.00338484,-0.00007108,0.11651846,-0.26
 424211,0.00661701,0.01768628,-0.02015156,0.00073257,-0.00408222,-0.003
 08787,0.00009114,-0.00115220,0.00012978,-0.00008426,-0.00002227,-0.000
 02230,0.00001029,-0.00003863,0.00003580,0.00000601,0.00028066,0.000960
 89,-0.00007775,-0.12723975,0.27997062,-0.00049347,-0.00007756,0.007696
 64,-0.00054998,0.00076863,0.00107035,-0.00347866,0.00656984,-0.0317680
 5,-0.00056287,0.00001365,0.00388278,-0.00002251,0.00021746,0.00466634,
 0.00011899,0.00005055,-0.00062602,0.00002686,-0.00008800,-0.00003659,0
 .00004493,-0.00000219,-0.00005255,0.00005211,-0.00018349,-0.00430940,0
 .00482693,-0.00707134,0.02268848,0.00480422,0.01195469,-0.00160480,0.0
 1012681,-0.00143768,0.00045843,-0.04761734,-0.02097570,0.00142003,-0.3
 2397213,0.00407982,0.00619762,-0.01908023,0.03115679,-0.00018044,-0.00
 829976,-0.00857425,-0.00088518,0.00003331,0.00080691,-0.00147006,0.000
 32178,-0.00065204,-0.00085581,-0.00028277,-0.00040256,-0.00001658,0.00
 198745,0.00103904,0.00036385,0.68406996,-0.00027327,0.00849079,0.00008
 435,0.00635166,-0.00983426,0.00132600,-0.05060766,0.00148519,0.0006952
 8,0.00593690,-0.12858946,0.00453969,0.04484005,0.00410416,-0.00019730,
 -0.00718037,-0.00917341,-0.00049060,0.00009391,-0.00016429,0.00002552,
 -0.00010525,-0.00000801,0.00004854,-0.00167994,-0.00015416,-0.00018354
 ,-0.00086250,0.00220012,-0.00087441,0.00893798,0.83687901,-0.00116200,
 -0.00228315,-0.00091040,-0.00182372,-0.00021612,0.00405108,0.00186374,
 0.00375334,0.00896065,-0.02672504,0.00500906,-0.03868188,-0.00316996,-
 0.00632502,0.00644033,0.00132457,0.00297389,0.00393728,-0.00000642,-0.
 00035153,0.00024431,-0.00007391,0.00028130,0.00016721,-0.00014661,0.00
 007686,0.00001559,0.00038804,0.00027277,-0.00262230,0.12328723,-0.0562
 2686,0.07478023,0.01023256,-0.01367131,0.00038842,-0.00115890,-0.00319
 724,-0.00008672,-0.00052831,-0.00037539,-0.00000218,-0.00520166,-0.002
 25700,-0.00021964,-0.01188546,0.02740581,-0.00071108,-0.12797074,0.119
 17051,-0.00496691,0.00012871,0.00013425,0.00001684,-0.00004456,0.00032
 621,-0.00031222,0.00052694,-0.00075499,0.00007385,0.00002906,0.0000821
 7,0.00001054,-0.00038307,0.00157295,-0.00027266,0.13399094,0.01615479,
 -0.01880951,0.00090272,-0.00342527,-0.00348529,0.00011953,-0.00123781,
 0.00008458,-0.00006429,-0.00109756,0.00177880,-0.00000305,-0.00001884,
 0.00345553,-0.00004678,0.12196436,-0.26820102,0.00723193,-0.00005736,0
 .00031082,-0.00009692,-0.00153831,-0.00035208,-0.00035070,0.00071335,-
 0.00096036,0.00002741,0.00006352,-0.00004571,-0.00000529,-0.00029489,-
 0.00002361,0.00000980,-0.12916003,0.28742121,0.00025115,0.00071900,0.0
 0658451,0.00007041,-0.00001437,0.00577908,-0.00017908,-0.00016617,-0.0
 0034464,-0.00042878,0.00011653,0.00472592,-0.00013683,0.00095656,0.002
 06480,-0.00501789,0.00648553,-0.03540906,-0.00023830,-0.00019825,-0.00
 064279,-0.00054202,0.00080904,0.00024848,0.00003372,-0.00003754,-0.000
 37476,0.00001194,-0.00001709,-0.00063347,-0.00010492,-0.00006769,0.000
 61801,0.00545383,-0.00774586,0.02365867,-0.27515567,-0.00584571,0.0148
 3423,-0.03446247,0.00908449,0.00031869,0.00153781,-0.00142970,-0.00011
 612,0.00532645,-0.00278009,-0.00101245,-0.00128706,0.00199651,-0.00144
 806,-0.03121078,-0.01166640,0.00112249,-0.11051453,-0.11074623,-0.0964
 5880,-0.12266925,0.13091973,-0.08956193,0.00185731,-0.00085162,0.00046
 631,-0.00043019,0.00015671,0.00011519,-0.00964551,0.00061145,0.0022136
 4,0.00193470,0.00125784,0.00058411,0.57485364,-0.00213044,-0.11447360,
 -0.00158045,0.04524883,0.00170259,-0.00009014,-0.00554962,-0.00882147,
 -0.00074698,0.00136203,0.00608451,-0.00041715,0.00608885,-0.00518410,0
 .00138744,-0.04700655,-0.00060625,-0.00003320,-0.10533842,-0.30700444,
 -0.16637636,0.12202554,-0.32507546,0.13598456,0.00035838,0.00195251,0.
 00082679,0.00154231,-0.00008126,0.00015403,-0.00183535,-0.00021200,0.0
 0044992,-0.00054093,0.00183499,-0.00096364,-0.01245058,0.75121709,-0.0
 3281199,-0.00377756,-0.03714525,-0.00234245,-0.00207750,0.00516855,0.0
 0040185,0.00221647,0.00368278,-0.00214263,0.00002956,-0.00110835,-0.00
 026889,-0.00154188,0.00538533,-0.00026304,0.00364203,0.00657478,-0.072
 07558,-0.12919796,-0.08847384,-0.06473430,0.10004205,-0.06137295,0.000
 38904,-0.00045094,-0.00239781,-0.00021840,-0.00005022,0.00043561,0.003
 58294,-0.00020708,-0.00087750,0.00040989,0.00012956,-0.00359222,0.1703
 8795,0.03161269,0.17264729,0.00016878,-0.00066629,-0.00007913,-0.00073
 557,0.00004207,0.00039621,0.00259778,0.00231374,0.00090609,-0.01724980
 ,0.03433610,-0.01072409,-0.00492254,-0.00333596,-0.00083770,0.00031956
 ,0.00190109,0.00034418,-0.00004066,-0.00000673,0.00000980,0.00002728,0
 .00001909,0.00000183,0.00006695,0.00003152,-0.00002449,-0.00009885,-0.
 00154394,-0.00040567,-0.13763088,0.13499796,-0.05739073,-0.00048002,-0
 .00007593,0.00006933,0.00010179,-0.00007580,-0.00005683,0.14511504,0.0
 0029971,0.00142530,-0.00029431,0.00127643,-0.00064017,-0.00057989,-0.0
 0398530,0.00110450,-0.00066691,0.00415281,0.00247674,-0.00083699,-0.00
 102135,0.00380074,0.00060720,-0.00094652,-0.00103020,0.00008245,0.0000
 0144,0.00008177,-0.00014792,0.00004182,-0.00005637,-0.00002259,-0.0000
 2263,-0.00003220,0.00007283,0.00036409,-0.00039420,0.00058534,0.138366
 79,-0.34812628,0.09820866,-0.00000196,0.00005374,0.00003075,-0.0007739
 1,-0.00025345,0.00039860,-0.15431475,0.35758230,0.00049744,0.00037772,
 -0.00023135,0.00021443,0.00008725,-0.00067356,-0.00060626,-0.00106484,
 -0.00112892,0.01026290,-0.00409299,-0.00446402,0.00107650,0.00254187,0
 .00266623,-0.00011525,-0.00099392,0.00125858,0.00000646,0.00009679,-0.
 00013972,0.00001234,-0.00000877,-0.00004898,0.00002128,-0.00001903,0.0
 0008856,-0.00031783,-0.00039263,0.00040642,-0.07543133,0.11944729,-0.0
 3809137,0.00011401,0.00000312,0.00019804,-0.00083407,-0.00019641,0.000
 31360,0.06009525,-0.10780400,0.04235819,-0.00001864,0.00055461,-0.0000
 7646,0.00020196,-0.00186390,0.00014621,-0.00548728,0.00274597,-0.00056
 246,-0.01698219,-0.03440276,-0.00662556,0.00200704,0.00032939,0.000683
 62,-0.00075665,-0.00040133,0.00023076,0.00001950,-0.00003436,0.0000287
 6,-0.00003272,0.00001716,0.00003085,-0.00044423,0.00003613,0.00000743,
 0.00012271,-0.00018117,0.00000100,-0.15240058,-0.14843161,-0.03929823,
 0.00009483,0.00000142,0.00003875,0.00026115,0.00004551,-0.00006192,0.0
 1210183,0.01678807,0.00543423,0.16567457,-0.00065592,-0.00394408,0.000
 18959,-0.00289845,0.00139175,-0.00016315,0.00611481,0.00351311,-0.0006
 9125,-0.01145785,0.00832185,-0.00005761,-0.00300352,-0.00661663,0.0008
 6445,0.00317306,0.00112408,0.00025266,-0.00001611,-0.00007098,0.000212
 59,-0.00002376,0.00010545,0.00008990,0.00016714,0.00012233,0.00006569,
 -0.00001313,-0.00000800,-0.00007432,-0.15066927,-0.34087807,-0.0500170
 9,0.00031146,0.00015580,0.00007379,0.00111485,0.00033030,-0.00047231,-
 0.01109634,-0.01141505,-0.00563592,0.16706167,0.34480330,0.00032005,0.
 00104778,0.00008788,0.00095333,-0.00001035,0.00176041,-0.00044098,-0.0
 0096253,0.00286012,0.00780201,0.00289319,-0.00395922,0.00003523,0.0013
 9791,-0.00071095,-0.00081455,-0.00062664,-0.00059920,-0.00002398,-0.00
 001903,-0.00007366,0.00002199,-0.00005321,-0.00009772,0.00006072,-0.00
 002266,-0.00024703,0.00000839,-0.00014485,-0.00075858,-0.05533046,-0.0
 6840483,-0.01858388,-0.00002898,-0.00001118,-0.00010563,-0.00058003,-0
 .00005547,0.00014934,0.00802703,0.01060573,-0.00246526,0.04003129,0.05
 581463,0.02577855,-0.00694157,0.01132751,-0.00068731,0.00482014,-0.001
 47889,0.00039570,-0.00614463,0.00016163,-0.00036939,0.04375039,0.00589
 373,0.00014826,-0.11267263,-0.02257492,-0.00142884,-0.02632074,-0.0361
 0578,-0.00087448,-0.00057217,-0.00004790,0.00010118,-0.00014652,-0.000
 24061,0.00009437,0.00006900,0.00007575,0.00000667,0.00024690,0.0017302
 6,-0.00006245,-0.02070179,-0.00789491,0.00409254,-0.00108444,-0.000123
 81,0.00002970,0.00057057,-0.00199408,-0.00032677,-0.00166087,-0.003644
 64,-0.00190990,-0.00650383,0.02148785,-0.00203190,0.88039278,-0.000652
 28,0.01832104,-0.00006832,0.01189576,-0.00466698,0.00080465,-0.0025339
 4,-0.00954577,0.00020288,0.01328790,-0.03297862,-0.00072422,-0.0375112
 9,-0.18219574,-0.00166176,-0.03007789,-0.00141463,-0.00166444,-0.00015
 286,-0.00024128,0.00029611,-0.00001047,0.00053582,0.00090316,0.0005417
 7,-0.00014346,-0.00001581,-0.00089532,-0.00001516,-0.00000218,-0.02121
 082,-0.00315347,0.00380506,0.00441491,0.00020707,0.00008352,0.00552836
 ,-0.00111197,-0.00150386,-0.00013344,-0.00205922,-0.00162507,0.0028310
 7,0.00859317,-0.00099151,0.07501515,0.60085677,-0.00054889,0.00040260,
 0.00656235,0.00017433,-0.00010022,-0.00084519,-0.00052175,0.00028512,0
 .00615539,0.00279752,0.00048942,0.00074670,-0.00156594,-0.00144273,-0.
 07874799,-0.00067944,-0.00108386,-0.00225189,0.00019328,-0.00005957,0.
 00018277,0.00004907,0.00002927,-0.00011806,0.00000588,-0.00000846,-0.0
 0084787,0.00001804,0.00014422,-0.00000793,-0.00068050,-0.00077165,-0.0
 0167511,-0.00003484,-0.00009427,-0.00343619,-0.00006718,0.00015793,0.0
 0102700,-0.00038675,-0.00018762,-0.00021559,-0.00078919,0.00114275,-0.
 00025316,0.04432441,0.00152843,0.21419787,0.00087990,-0.01086367,0.000
 34819,-0.00730421,0.00365908,-0.00049194,0.00614807,0.00505686,0.00007
 116,-0.02503494,0.00548299,0.00038735,-0.04642426,-0.03824867,-0.00372
 797,0.01088685,-0.00048913,0.00048970,0.00005776,0.00012324,-0.0000537
 8,0.00016156,0.00002944,-0.00026359,-0.00008877,-0.00007104,0.00000337
 ,0.00025699,-0.00057504,0.00001137,0.01816097,0.01036992,-0.00333231,0
 .00088961,0.00059644,0.00002768,-0.00193452,0.00051605,0.00039299,0.00
 159842,0.00292356,0.00146752,0.00108557,-0.01445799,0.00172519,-0.6174
 7446,-0.07675093,-0.03701424,0.74907695,-0.00046905,-0.00093294,-0.000
 03940,-0.00134653,0.00052978,-0.00009216,-0.00047429,0.00071659,0.0000
 4898,0.00212873,0.00236815,0.00000222,-0.04145764,0.00325403,-0.002701
 13,0.00223511,-0.00704189,0.00025066,-0.00007976,0.00008353,-0.0001468
 6,0.00012720,-0.00015832,-0.00026630,-0.00015122,-0.00007388,-0.000005
 71,0.00012151,0.00000910,-0.00001421,0.00603729,-0.01214180,0.00155191
 ,-0.00084691,0.00009517,-0.00004789,-0.00207945,-0.00049911,0.00052846
 ,-0.00215144,-0.00276545,-0.00113436,-0.00459478,-0.00577164,-0.000529
 64,-0.08779210,-0.13396352,-0.00538643,0.07133186,0.13424181,0.0000573
 5,-0.00037447,-0.00122977,-0.00024051,0.00014027,0.00019499,0.00021192
 ,0.00006626,-0.00049767,-0.00140914,0.00044946,-0.00103116,-0.00380711
 ,-0.00134410,0.02009974,0.00033691,-0.00030245,0.00378659,-0.00007994,
 0.00003298,-0.00011613,-0.00002170,0.00001949,0.00004344,0.00000638,-0
 .00001139,0.00005471,0.00001178,-0.00004512,0.00002292,0.00099465,0.00
 077819,0.00224288,0.00008854,0.00007290,0.00054693,0.00000709,-0.00012
 909,-0.00042270,-0.00013940,-0.00015672,0.00067815,0.00091509,-0.00085
 581,-0.00395922,-0.03657982,-0.00539380,-0.08026342,0.04849401,0.00381
 463,0.03868463,0.00071845,0.00171446,0.00006640,0.00088335,-0.00083044
 ,0.00007360,0.00114467,-0.00121979,0.00010586,-0.00412309,-0.00297047,
 -0.00023817,0.01435626,-0.00387572,0.00013658,-0.00532675,-0.00289796,
 -0.00023535,-0.00002132,-0.00005516,0.00007499,0.00010968,0.00020318,0
 .00019486,0.00017028,-0.00012863,0.00000274,-0.00012047,-0.00029914,0.
 00000436,0.00066850,0.00347683,0.00012997,0.00035068,-0.00347692,0.000
 05981,0.00103330,-0.00024821,-0.00031761,0.00077276,0.00059304,0.00006
 667,0.00118018,-0.00558462,0.00030983,-0.15364745,0.03118275,-0.006485
 46,-0.08568321,0.06322582,-0.00889986,0.43831610,0.00254623,-0.0034195
 5,-0.00009107,-0.00192681,0.00029865,-0.00017225,0.00142077,-0.0005337
 1,-0.00003223,-0.01082583,0.00014963,0.00002994,0.01856092,-0.05252617
 ,0.00207966,0.00356755,-0.00355537,0.00029554,0.00011014,0.00009931,-0
 .00021379,0.00009702,-0.00025151,-0.00038722,-0.00023726,-0.00010835,0
 .00001859,-0.00019365,-0.00073093,0.00002740,0.00398145,-0.00147256,-0
 .00114570,-0.00235552,-0.00358462,-0.00000548,-0.00245704,0.00022627,0
 .00081718,-0.00041451,0.00018918,0.00046551,-0.00079354,0.00122368,0.0
 0005675,0.06848585,-0.20488537,0.00605114,0.04607795,0.01249442,0.0037
 5599,0.11041433,0.57344706,0.00002764,-0.00003962,-0.00067458,-0.00003
 500,0.00003225,-0.00009676,0.00022793,0.00000626,-0.00092312,-0.000477
 31,-0.00020306,0.00226284,-0.00004349,0.00030352,0.01162793,-0.0002713
 4,-0.00005748,0.00084308,-0.00000590,0.00002099,-0.00002181,0.00002420
 ,-0.00001300,-0.00007153,0.00000410,0.00000387,0.00022708,-0.00000328,
 -0.00001941,-0.00003524,0.00014974,0.00047878,0.00006145,0.00006090,-0
 .00007674,0.00041385,0.00002057,0.00002710,0.00005050,0.00021274,0.000
 11970,-0.00050426,-0.00012554,-0.00077423,0.00109029,-0.00658479,0.003
 73212,-0.06409965,-0.00854404,0.00454520,0.02685446,0.02754369,0.00283
 460,0.03727701,0.00044412,-0.00013261,0.00000682,-0.00015130,-0.000045
 15,-0.00000878,-0.00013083,0.00018636,0.00003280,0.00106402,0.00042656
 ,-0.00005333,-0.00311278,0.00390194,-0.00050739,-0.00081154,-0.0002493
 5,-0.00000014,-0.00000577,0.00000500,-0.00001752,0.00003790,-0.0000126
 1,-0.00002602,0.00001803,-0.00003711,0.00000292,0.00004463,0.00007957,
 -0.00000053,-0.00015892,-0.00015410,0.00010185,0.00055914,-0.00024499,
 0.00001740,-0.00016677,-0.00001751,0.00005576,-0.00005102,-0.00009670,
 -0.00005438,-0.00012321,0.00044610,-0.00004416,0.02402132,0.02523157,0
 .00121168,-0.00525826,-0.00376435,0.00005376,-0.21078192,-0.23605806,-
 0.01218083,0.19456315,-0.00056419,0.00068673,0.00000392,0.00046521,-0.
 00007194,0.00002053,0.00033977,-0.00046617,0.00001692,-0.00108006,-0.0
 0100526,-0.00003118,0.00590201,-0.00086799,0.00032664,0.00045427,0.000
 66789,-0.00003497,-0.00002918,-0.00002307,0.00004733,-0.00005213,0.000
 01024,0.00005316,0.00001487,0.00004398,-0.00000206,-0.00008325,-0.0000
 9588,0.00000611,-0.00030821,0.00077210,0.00017291,-0.00025700,0.000064
 48,-0.00001073,0.00041079,-0.00002516,-0.00013730,0.00017357,0.0000583
 2,-0.00005161,0.00029244,-0.00098038,0.00001590,-0.02228010,-0.0521386
 7,-0.00109606,-0.00471092,0.00955597,-0.00051721,-0.18922335,-0.317060
 07,-0.01092082,0.21053544,0.36087487,0.00000929,-0.00000811,0.00020127
 ,-0.00002553,0.00000065,0.00010839,0.00000601,0.00002379,-0.00037513,-
 0.00009310,0.00009917,0.00105914,-0.00051052,0.00020978,0.00352606,0.0
 0002900,0.00000130,-0.00027519,-0.00000782,-0.00000743,0.00001588,-0.0
 0000624,0.00000271,0.00003142,0.00000023,-0.00000162,-0.00006166,0.000
 00322,0.00000043,-0.00001941,0.00010560,0.00000034,-0.00007659,0.00001
 842,-0.00000189,-0.00029953,0.00000839,-0.00001154,-0.00004415,-0.0000
 1766,-0.00001431,-0.00000471,-0.00000864,0.00003565,0.00008692,0.00166
 282,0.00229507,0.00388996,0.00000935,-0.00037798,-0.00568938,-0.012592
 90,-0.01438454,-0.01428153,0.01141008,0.01213852,0.01220823\\0.0000089
 3,0.00003734,0.00000951,0.00001573,-0.00002428,0.00000051,-0.00002673,
 -0.00003808,-0.00001992,0.00003794,0.00000417,0.00005166,-0.00002367,-
 0.00001165,-0.00001822,0.00002818,0.00000833,-0.00000497,-0.00000642,-
 0.00000086,-0.00001262,-0.00000460,0.00000631,-0.00000569,-0.00000318,
 0.00001651,0.00000311,-0.00000166,0.00001878,0.00000027,-0.00006538,-0
 .00005145,-0.00004242,-0.00000066,-0.00000519,-0.00000577,-0.00001058,
 -0.00001988,0.00001430,0.00003352,0.00001524,0.00000967,0.00003640,0.0
 0002571,0.00001444,-0.00015895,0.00002060,-0.00000098,0.00011236,0.000
 01205,0.00000482,0.00003937,-0.00000687,0.00000300,-0.00001060,-0.0000
 0678,-0.00000070\\\@


 TO SEE A WORLD IN A GRAIN OF SAND
 AND A HEAVEN IN A WILD FLOWER
 HOLD INFINITY IN THE PALM OF YOUR HAND
 AND ETERNITY IN AN HOUR

                       -- WILLIAM BLAKE
 Job cpu time:       0 days  0 hours 38 minutes 11.3 seconds.
 Elapsed time:       0 days  0 hours 38 minutes 14.8 seconds.
 File lengths (MBytes):  RWF=    247 Int=      0 D2E=      0 Chk=     14 Scr=      1
 Normal termination of Gaussian 16 at Mon Jan 20 17:00:05 2025.
