 Entering Gaussian System, Link 0=g16
 Initial command:
 /sw/cluster/pub/apps//g16/l1.exe "/data/mmaximo/28066/Gau-56333.inp" -scrdir="/data/mmaximo/28066/"
 Entering Link 1 = /sw/cluster/pub/apps//g16/l1.exe PID=     56334.
  
 Copyright (c) 1988,1990,1992,1993,1995,1998,2003,2009,2016,
            Gaussian, Inc.  All Rights Reserved.
  
 This is part of the Gaussian(R) 16 program.  It is based on
 the Gaussian(R) 09 system (copyright 2009, Gaussian, Inc.),
 the Gaussian(R) 03 system (copyright 2003, Gaussian, Inc.),
 the Gaussian(R) 98 system (copyright 1998, Gaussian, Inc.),
 the Gaussian(R) 94 system (copyright 1995, Gaussian, Inc.),
 the Gaussian 92(TM) system (copyright 1992, Gaussian, Inc.),
 the Gaussian 90(TM) system (copyright 1990, Gaussian, Inc.),
 the Gaussian 88(TM) system (copyright 1988, Gaussian, Inc.),
 the Gaussian 86(TM) system (copyright 1986, Carnegie Mellon
 University), and the Gaussian 82(TM) system (copyright 1983,
 Carnegie Mellon University). Gaussian is a federally registered
 trademark of Gaussian, Inc.
  
 This software contains proprietary and confidential information,
 including trade secrets, belonging to Gaussian, Inc.
  
 This software is provided under written license and may be
 used, copied, transmitted, or stored only in accord with that
 written license.
  
 The following legend is applicable only to US Government
 contracts under FAR:
  
                    RESTRICTED RIGHTS LEGEND
  
 Use, reproduction and disclosure by the US Government is
 subject to restrictions as set forth in subparagraphs (a)
 and (c) of the Commercial Computer Software - Restricted
 Rights clause in FAR 52.227-19.
  
 Gaussian, Inc.
 340 Quinnipiac St., Bldg. 40, Wallingford CT 06492
  
  
 ---------------------------------------------------------------
 Warning -- This program may not be used in any manner that
 competes with the business of Gaussian, Inc. or will provide
 assistance to any competitor of Gaussian, Inc.  The licensee
 of this program is prohibited from giving any competitor of
 Gaussian, Inc. access to this program.  By using this program,
 the user acknowledges that Gaussian, Inc. is engaged in the
 business of creating and licensing software in the field of
 computational chemistry and represents and warrants to the
 licensee that it is not a competitor of Gaussian, Inc. and that
 it will not use this program in any manner prohibited above.
 ---------------------------------------------------------------
  

 Cite this work as:
 Gaussian 16, Revision A.03,
 M. J. Frisch, G. W. Trucks, H. B. Schlegel, G. E. Scuseria, 
 M. A. Robb, J. R. Cheeseman, G. Scalmani, V. Barone, 
 G. A. Petersson, H. Nakatsuji, X. Li, M. Caricato, A. V. Marenich, 
 J. Bloino, B. G. Janesko, R. Gomperts, B. Mennucci, H. P. Hratchian, 
 J. V. Ortiz, A. F. Izmaylov, J. L. Sonnenberg, D. Williams-Young, 
 F. Ding, F. Lipparini, F. Egidi, J. Goings, B. Peng, A. Petrone, 
 T. Henderson, D. Ranasinghe, V. G. Zakrzewski, J. Gao, N. Rega, 
 G. Zheng, W. Liang, M. Hada, M. Ehara, K. Toyota, R. Fukuda, 
 J. Hasegawa, M. Ishida, T. Nakajima, Y. Honda, O. Kitao, H. Nakai, 
 T. Vreven, K. Throssell, J. A. Montgomery, Jr., J. E. Peralta, 
 F. Ogliaro, M. J. Bearpark, J. J. Heyd, E. N. Brothers, K. N. Kudin, 
 V. N. Staroverov, T. A. Keith, R. Kobayashi, J. Normand, 
 K. Raghavachari, A. P. Rendell, J. C. Burant, S. S. Iyengar, 
 J. Tomasi, M. Cossi, J. M. Millam, M. Klene, C. Adamo, R. Cammi, 
 J. W. Ochterski, R. L. Martin, K. Morokuma, O. Farkas, 
 J. B. Foresman, and D. J. Fox, Gaussian, Inc., Wallingford CT, 2016.
 
 ******************************************
 Gaussian 16:  ES64L-G16RevA.03 25-Dec-2016
                21-Jan-2025 
 ******************************************
 %chk=C6H5NH+.chk
 -------------------------
 # opt freq b3lyp def2tzvp
 -------------------------
 1/18=20,19=15,26=3,38=1/1,3;
 2/9=110,12=2,17=6,18=5,40=1/2;
 3/5=44,7=101,11=2,25=1,30=1,71=1,74=-5/1,2,3;
 4//1;
 5/5=2,38=5/2;
 6/7=2,8=2,9=2,10=2,28=1/1;
 7//1,2,3,16;
 1/18=20,19=15,26=3/3(2);
 2/9=110/2;
 99//99;
 2/9=110/2;
 3/5=44,7=101,11=2,25=1,30=1,71=1,74=-5/1,2,3;
 4/5=5,16=3,69=1/1;
 5/5=2,38=5/2;
 7//1,2,3,16;
 1/18=20,19=15,26=3/3(-5);
 2/9=110/2;
 6/7=2,8=2,9=2,10=2,19=2,28=1/1;
 99/9=1/99;
 --------
 opt meta
 --------
 Symbolic Z-matrix:
 Charge =  1 Multiplicity = 1
 C                     0.03909  -1.77821  -0.06445 
 C                     1.27485  -1.08859  -0.02378 
 C                     1.32466   0.26538   0.02974 
 C                     0.01491   1.04837   0.04588 
 C                    -1.28126   0.24424   0.00007 
 C                    -1.20829  -1.10873  -0.05206 
 H                     0.04824  -2.84736  -0.10618 
 H                     2.18759  -1.64688  -0.03552 
 H                     2.26483   0.77533   0.0601 
 N                     0.00385   2.34094   0.09633 
 H                    -2.23002   0.73888   0.00892 
 H                    -0.86636   2.83352   0.10597 
 C                    -2.50802  -1.93344  -0.09871 
 O                    -3.62347  -1.35102  -0.08826 
 O                    -2.44733  -3.36109  -0.1539 
 H                    -3.22184  -3.73115   0.27597 
 

 GradGradGradGradGradGradGradGradGradGradGradGradGradGradGradGradGradGrad
 Berny optimization.
 Initialization pass.
                           ----------------------------
                           !    Initial Parameters    !
                           ! (Angstroms and Degrees)  !
 --------------------------                            --------------------------
 ! Name  Definition              Value          Derivative Info.                !
 --------------------------------------------------------------------------------
 ! R1    R(1,2)                  1.4157         estimate D2E/DX2                !
 ! R2    R(1,6)                  1.4157         estimate D2E/DX2                !
 ! R3    R(1,7)                  1.07           estimate D2E/DX2                !
 ! R4    R(2,3)                  1.3559         estimate D2E/DX2                !
 ! R5    R(2,8)                  1.07           estimate D2E/DX2                !
 ! R6    R(3,4)                  1.526          estimate D2E/DX2                !
 ! R7    R(3,9)                  1.07           estimate D2E/DX2                !
 ! R8    R(4,5)                  1.526          estimate D2E/DX2                !
 ! R9    R(4,10)                 1.2936         estimate D2E/DX2                !
 ! R10   R(5,6)                  1.3559         estimate D2E/DX2                !
 ! R11   R(5,11)                 1.07           estimate D2E/DX2                !
 ! R12   R(6,13)                 1.54           estimate D2E/DX2                !
 ! R13   R(10,12)                1.0            estimate D2E/DX2                !
 ! R14   R(13,14)                1.2584         estimate D2E/DX2                !
 ! R15   R(13,15)                1.43           estimate D2E/DX2                !
 ! R16   R(15,16)                0.96           estimate D2E/DX2                !
 ! A1    A(2,1,6)              122.5798         estimate D2E/DX2                !
 ! A2    A(2,1,7)              118.7101         estimate D2E/DX2                !
 ! A3    A(6,1,7)              118.7101         estimate D2E/DX2                !
 ! A4    A(1,2,3)              121.3051         estimate D2E/DX2                !
 ! A5    A(1,2,8)              119.3475         estimate D2E/DX2                !
 ! A6    A(3,2,8)              119.3475         estimate D2E/DX2                !
 ! A7    A(2,3,4)              118.7662         estimate D2E/DX2                !
 ! A8    A(2,3,9)              120.6169         estimate D2E/DX2                !
 ! A9    A(4,3,9)              120.6169         estimate D2E/DX2                !
 ! A10   A(3,4,5)              117.2777         estimate D2E/DX2                !
 ! A11   A(3,4,10)             121.3612         estimate D2E/DX2                !
 ! A12   A(5,4,10)             121.3612         estimate D2E/DX2                !
 ! A13   A(4,5,6)              118.7662         estimate D2E/DX2                !
 ! A14   A(4,5,11)             120.6169         estimate D2E/DX2                !
 ! A15   A(6,5,11)             120.6169         estimate D2E/DX2                !
 ! A16   A(1,6,5)              121.3051         estimate D2E/DX2                !
 ! A17   A(1,6,13)             119.3475         estimate D2E/DX2                !
 ! A18   A(5,6,13)             119.3475         estimate D2E/DX2                !
 ! A19   A(4,10,12)            120.0            estimate D2E/DX2                !
 ! A20   A(6,13,14)            120.0            estimate D2E/DX2                !
 ! A21   A(6,13,15)            120.0            estimate D2E/DX2                !
 ! A22   A(14,13,15)           120.0            estimate D2E/DX2                !
 ! A23   A(13,15,16)           109.4712         estimate D2E/DX2                !
 ! D1    D(6,1,2,3)             -0.0003         estimate D2E/DX2                !
 ! D2    D(6,1,2,8)            179.9998         estimate D2E/DX2                !
 ! D3    D(7,1,2,3)            179.9997         estimate D2E/DX2                !
 ! D4    D(7,1,2,8)             -0.0002         estimate D2E/DX2                !
 ! D5    D(2,1,6,5)              0.0002         estimate D2E/DX2                !
 ! D6    D(2,1,6,13)          -179.9998         estimate D2E/DX2                !
 ! D7    D(7,1,6,5)           -179.9998         estimate D2E/DX2                !
 ! D8    D(7,1,6,13)             0.0002         estimate D2E/DX2                !
 ! D9    D(1,2,3,4)              0.0001         estimate D2E/DX2                !
 ! D10   D(1,2,3,9)           -179.9997         estimate D2E/DX2                !
 ! D11   D(8,2,3,4)           -179.9999         estimate D2E/DX2                !
 ! D12   D(8,2,3,9)              0.0002         estimate D2E/DX2                !
 ! D13   D(2,3,4,5)              0.0            estimate D2E/DX2                !
 ! D14   D(2,3,4,10)          -179.9999         estimate D2E/DX2                !
 ! D15   D(9,3,4,5)            179.9999         estimate D2E/DX2                !
 ! D16   D(9,3,4,10)             0.0            estimate D2E/DX2                !
 ! D17   D(3,4,5,6)              0.0            estimate D2E/DX2                !
 ! D18   D(3,4,5,11)           180.0            estimate D2E/DX2                !
 ! D19   D(10,4,5,6)           179.9999         estimate D2E/DX2                !
 ! D20   D(10,4,5,11)           -0.0002         estimate D2E/DX2                !
 ! D21   D(3,4,10,12)          180.0            estimate D2E/DX2                !
 ! D22   D(5,4,10,12)            0.0001         estimate D2E/DX2                !
 ! D23   D(4,5,6,1)             -0.0001         estimate D2E/DX2                !
 ! D24   D(4,5,6,13)           179.9999         estimate D2E/DX2                !
 ! D25   D(11,5,6,1)           179.9999         estimate D2E/DX2                !
 ! D26   D(11,5,6,13)           -0.0001         estimate D2E/DX2                !
 ! D27   D(1,6,13,14)          179.9998         estimate D2E/DX2                !
 ! D28   D(1,6,13,15)           -0.0002         estimate D2E/DX2                !
 ! D29   D(5,6,13,14)           -0.0002         estimate D2E/DX2                !
 ! D30   D(5,6,13,15)          179.9998         estimate D2E/DX2                !
 ! D31   D(6,13,15,16)         150.0            estimate D2E/DX2                !
 ! D32   D(14,13,15,16)        -30.0            estimate D2E/DX2                !
 --------------------------------------------------------------------------------
 Trust Radius=3.00D-01 FncErr=1.00D-07 GrdErr=1.00D-06 EigMax=2.50D+02 EigMin=1.00D-04
 Number of steps in this run=     81 maximum allowed number of steps=    100.
 GradGradGradGradGradGradGradGradGradGradGradGradGradGradGradGradGradGrad

                          Input orientation:                          
 ---------------------------------------------------------------------
 Center     Atomic      Atomic             Coordinates (Angstroms)
 Number     Number       Type             X           Y           Z
 ---------------------------------------------------------------------
      1          6           0        0.039093   -1.778212   -0.064445
      2          6           0        1.274854   -1.088591   -0.023782
      3          6           0        1.324659    0.265377    0.029744
      4          6           0        0.014912    1.048371    0.045882
      5          6           0       -1.281258    0.244242    0.000072
      6          6           0       -1.208295   -1.108731   -0.052057
      7          1           0        0.048240   -2.847359   -0.106179
      8          1           0        2.187585   -1.646877   -0.035520
      9          1           0        2.264831    0.775333    0.060102
     10          7           0        0.003854    2.340940    0.096330
     11          1           0       -2.230024    0.738877    0.008923
     12          1           0       -0.866361    2.833518    0.105969
     13          6           0       -2.508016   -1.933442   -0.098708
     14          8           0       -3.623474   -1.351020   -0.088263
     15          8           0       -2.447334   -3.361087   -0.153899
     16          1           0       -3.221841   -3.731153    0.275973
 ---------------------------------------------------------------------
                    Distance matrix (angstroms):
                    1          2          3          4          5
     1  C    0.000000
     2  C    1.415746   0.000000
     3  C    2.416155   1.355941   0.000000
     4  C    2.828839   2.481716   1.526033   0.000000
     5  C    2.416155   2.882831   2.606171   1.526033   0.000000
     6  C    1.415746   2.483391   2.882831   2.481716   1.355941
     7  H    1.070000   2.145841   3.367023   3.898839   3.367023
     8  H    2.152697   1.070000   2.098956   3.462875   3.951008
     9  H    3.389692   2.112180   1.070000   2.266470   3.586141
    10  N    4.122439   3.659446   2.461081   1.293600   2.461081
    11  H    3.389692   3.952831   3.586141   2.266470   1.070000
    12  H    4.702865   4.470411   3.376644   1.991733   2.624444
    13  C    2.552065   3.876789   4.420486   3.908616   2.501399
    14  O    3.687473   4.905777   5.206792   4.360381   2.835250
    15  O    2.948867   4.363010   5.235733   5.054294   3.792339
    16  H    3.816223   5.224295   6.058345   5.776968   4.432353
                    6          7          8          9         10
     6  C    0.000000
     7  H    2.145841   0.000000
     8  H    3.438296   2.454169   0.000000
     9  H    3.952831   4.250273   2.425327   0.000000
    10  N    3.659446   5.192439   4.548489   2.750355   0.000000
    11  H    2.112180   4.250273   5.020863   4.495294   2.750355
    12  H    3.960204   5.757939   5.424071   3.747345   1.000000
    13  C    1.540000   2.714727   4.704762   5.490241   4.961639
    14  O    2.427572   3.964951   5.818825   6.262230   5.179011
    15  O    2.572683   2.548349   4.943178   6.273776   6.211606
    16  H    3.322510   3.408895   5.805440   7.103421   6.878059
                   11         12         13         14         15
    11  H    0.000000
    12  H    2.501302   0.000000
    13  C    2.688894   5.045872   0.000000
    14  O    2.513726   5.014953   1.258400   0.000000
    15  O    4.108946   6.398448   1.430000   2.329803   0.000000
    16  H    4.586522   6.976539   1.970203   2.441108   0.960000
                   16
    16  H    0.000000
 Stoichiometry    C7H6NO2(1+)
 Framework group  C1[X(C7H6NO2)]
 Deg. of freedom    42
 Full point group                 C1      NOp   1
 Largest Abelian subgroup         C1      NOp   1
 Largest concise Abelian subgroup C1      NOp   1
                         Standard orientation:                         
 ---------------------------------------------------------------------
 Center     Atomic      Atomic             Coordinates (Angstroms)
 Number     Number       Type             X           Y           Z
 ---------------------------------------------------------------------
      1          6           0        0.102712    1.414611   -0.009472
      2          6           0       -1.252506    1.824083   -0.002340
      3          6           0       -2.261988    0.918839    0.005109
      4          6           0       -1.915660   -0.567376    0.005729
      5          6           0       -0.436019   -0.940707   -0.002185
      6          6           0        0.487439    0.052142   -0.009291
      7          1           0        0.866156    2.164291   -0.015225
      8          1           0       -1.484755    2.868573   -0.002839
      9          1           0       -3.282451    1.240592    0.010451
     10          7           0       -2.838642   -1.473719    0.012678
     11          1           0       -0.132901   -1.966875   -0.002127
     12          1           0       -2.588625   -2.441960    0.012940
     13          6           0        1.984367   -0.309439   -0.017324
     14          8           0        2.340105   -1.516510   -0.017246
     15          8           0        2.970124    0.726479   -0.024871
     16          1           0        3.761158    0.418750    0.423647
 ---------------------------------------------------------------------
 Rotational constants (GHZ):           2.6573703           0.9133625           0.6800971
 Standard basis: def2TZVP (5D, 7F)
 There are   396 symmetry adapted cartesian basis functions of A   symmetry.
 There are   346 symmetry adapted basis functions of A   symmetry.
   346 basis functions,   558 primitive gaussians,   396 cartesian basis functions
    35 alpha electrons       35 beta electrons
       nuclear repulsion energy       467.5251283429 Hartrees.
 NAtoms=   16 NActive=   16 NUniq=   16 SFac= 1.00D+00 NAtFMM=   60 NAOKFM=F Big=F
 Integral buffers will be    131072 words long.
 Raffenetti 2 integral format.
 Two-electron integral symmetry is turned on.
 One-electron integrals computed using PRISM.
   1 Symmetry operations used in ECPInt.
 ECPInt:  NShTT=    9045 NPrTT=   28204 LenC2=    8635 LenP2D=   20841.
 LDataN:  DoStor=T MaxTD1= 6 Len=  172
 NBasis=   346 RedAO= T EigKep=  1.12D-05  NBF=   346
 NBsUse=   346 1.00D-06 EigRej= -1.00D+00 NBFU=   346
 ExpMin= 9.52D-02 ExpMax= 2.70D+04 ExpMxC= 9.22D+02 IAcc=3 IRadAn=         5 AccDes= 0.00D+00
 Harris functional with IExCor=  402 and IRadAn=       5 diagonalized for initial guess.
 HarFok:  IExCor=  402 AccDes= 0.00D+00 IRadAn=         5 IDoV= 1 UseB2=F ITyADJ=14
 ICtDFT=  3500011 ScaDFX=  1.000000  1.000000  1.000000  1.000000
 FoFCou: FMM=F IPFlag=           0 FMFlag=      100000 FMFlg1=           0
         NFxFlg=           0 DoJE=T BraDBF=F KetDBF=T FulRan=T
         wScrn=  0.000000 ICntrl=       500 IOpCl=  0 I1Cent=   200000004 NGrid=           0
         NMat0=    1 NMatS0=      1 NMatT0=    0 NMatD0=    1 NMtDS0=    0 NMtDT0=    0
 Petite list used in FoFCou.
 Requested convergence on RMS density matrix=1.00D-08 within 128 cycles.
 Requested convergence on MAX density matrix=1.00D-06.
 Requested convergence on             energy=1.00D-06.
 No special actions if energy rises.
 Integral accuracy reduced to 1.0D-05 until final iterations.
 EnCoef did     1 forward-backward iterations
 EnCoef did     3 forward-backward iterations
 Initial convergence to 1.0D-05 achieved.  Increase integral accuracy.
 SCF Done:  E(RB3LYP) =  -475.391827789     A.U. after   18 cycles
            NFock= 18  Conv=0.81D-08     -V/T= 2.0059

 **********************************************************************

            Population analysis using the SCF density.

 **********************************************************************

 Orbital symmetries:
       Occupied  (A) (A) (A) (A) (A) (A) (A) (A) (A) (A) (A) (A)
                 (A) (A) (A) (A) (A) (A) (A) (A) (A) (A) (A) (A)
                 (A) (A) (A) (A) (A) (A) (A) (A) (A) (A) (A)
       Virtual   (A) (A) (A) (A) (A) (A) (A) (A) (A) (A) (A) (A)
                 (A) (A) (A) (A) (A) (A) (A) (A) (A) (A) (A) (A)
                 (A) (A) (A) (A) (A) (A) (A) (A) (A) (A) (A) (A)
                 (A) (A) (A) (A) (A) (A) (A) (A) (A) (A) (A) (A)
                 (A) (A) (A) (A) (A) (A) (A) (A) (A) (A) (A) (A)
                 (A) (A) (A) (A) (A) (A) (A) (A) (A) (A) (A) (A)
                 (A) (A) (A) (A) (A) (A) (A) (A) (A) (A) (A) (A)
                 (A) (A) (A) (A) (A) (A) (A) (A) (A) (A) (A) (A)
                 (A) (A) (A) (A) (A) (A) (A) (A) (A) (A) (A) (A)
                 (A) (A) (A) (A) (A) (A) (A) (A) (A) (A) (A) (A)
                 (A) (A) (A) (A) (A) (A) (A) (A) (A) (A) (A) (A)
                 (A) (A) (A) (A) (A) (A) (A) (A) (A) (A) (A) (A)
                 (A) (A) (A) (A) (A) (A) (A) (A) (A) (A) (A) (A)
                 (A) (A) (A) (A) (A) (A) (A) (A) (A) (A) (A) (A)
                 (A) (A) (A) (A) (A) (A) (A) (A) (A) (A) (A) (A)
                 (A) (A) (A) (A) (A) (A) (A) (A) (A) (A) (A) (A)
                 (A) (A) (A) (A) (A) (A) (A) (A) (A) (A) (A) (A)
                 (A) (A) (A) (A) (A) (A) (A) (A) (A) (A) (A) (A)
                 (A) (A) (A) (A) (A) (A) (A) (A) (A) (A) (A) (A)
                 (A) (A) (A) (A) (A) (A) (A) (A) (A) (A) (A) (A)
                 (A) (A) (A) (A) (A) (A) (A) (A) (A) (A) (A) (A)
                 (A) (A) (A) (A) (A) (A) (A) (A) (A) (A) (A) (A)
                 (A) (A) (A) (A) (A) (A) (A) (A) (A) (A) (A) (A)
                 (A) (A) (A) (A) (A) (A) (A) (A) (A) (A) (A) (A)
                 (A) (A) (A) (A) (A) (A) (A) (A) (A) (A) (A) (A)
                 (A) (A) (A) (A) (A) (A) (A) (A) (A) (A) (A)
 The electronic state is 1-A.
 Alpha  occ. eigenvalues --  -19.32962 -19.29096 -14.55264 -10.49592 -10.46491
 Alpha  occ. eigenvalues --  -10.44795 -10.43727 -10.43247 -10.42446 -10.40266
 Alpha  occ. eigenvalues --   -1.23917  -1.16409  -1.13855  -1.07429  -0.99744
 Alpha  occ. eigenvalues --   -0.94110  -0.85584  -0.83285  -0.77928  -0.74553
 Alpha  occ. eigenvalues --   -0.72582  -0.68605  -0.67571  -0.65969  -0.63666
 Alpha  occ. eigenvalues --   -0.62088  -0.60650  -0.59386  -0.58491  -0.55216
 Alpha  occ. eigenvalues --   -0.53410  -0.49940  -0.48601  -0.47755  -0.44854
 Alpha virt. eigenvalues --   -0.36806  -0.25731  -0.21757  -0.15775  -0.12033
 Alpha virt. eigenvalues --   -0.11028  -0.09612  -0.07399  -0.07356  -0.06797
 Alpha virt. eigenvalues --   -0.05229  -0.03448  -0.01882  -0.01608   0.00572
 Alpha virt. eigenvalues --    0.01283   0.01428   0.03788   0.04343   0.04949
 Alpha virt. eigenvalues --    0.05681   0.06597   0.07394   0.08572   0.09982
 Alpha virt. eigenvalues --    0.12028   0.12165   0.13643   0.13799   0.15065
 Alpha virt. eigenvalues --    0.16343   0.17310   0.17641   0.20184   0.20732
 Alpha virt. eigenvalues --    0.21270   0.22225   0.24217   0.25907   0.26294
 Alpha virt. eigenvalues --    0.26793   0.27092   0.28320   0.28757   0.30379
 Alpha virt. eigenvalues --    0.31049   0.31760   0.32732   0.32933   0.34248
 Alpha virt. eigenvalues --    0.35765   0.38265   0.39639   0.41472   0.42849
 Alpha virt. eigenvalues --    0.43840   0.44715   0.46440   0.47015   0.47568
 Alpha virt. eigenvalues --    0.49415   0.49550   0.51482   0.53194   0.53813
 Alpha virt. eigenvalues --    0.55012   0.56005   0.56783   0.59552   0.60539
 Alpha virt. eigenvalues --    0.61741   0.65811   0.67963   0.69593   0.70133
 Alpha virt. eigenvalues --    0.71275   0.74135   0.75360   0.77562   0.79489
 Alpha virt. eigenvalues --    0.82154   0.83114   0.85531   0.85820   0.88389
 Alpha virt. eigenvalues --    0.89910   0.92034   0.94120   0.99751   1.00306
 Alpha virt. eigenvalues --    1.01185   1.02160   1.04631   1.06015   1.06514
 Alpha virt. eigenvalues --    1.08929   1.12020   1.14450   1.15089   1.16502
 Alpha virt. eigenvalues --    1.20118   1.21358   1.23279   1.24882   1.26551
 Alpha virt. eigenvalues --    1.26754   1.28503   1.30865   1.31796   1.33319
 Alpha virt. eigenvalues --    1.35272   1.38231   1.38359   1.40383   1.41001
 Alpha virt. eigenvalues --    1.42191   1.43744   1.45247   1.46271   1.47453
 Alpha virt. eigenvalues --    1.49468   1.52360   1.55330   1.59662   1.63285
 Alpha virt. eigenvalues --    1.64170   1.65954   1.67804   1.69918   1.71755
 Alpha virt. eigenvalues --    1.74919   1.75888   1.77773   1.79524   1.81206
 Alpha virt. eigenvalues --    1.82324   1.83601   1.84581   1.85268   1.86459
 Alpha virt. eigenvalues --    1.89813   1.91349   1.97433   1.98697   1.98769
 Alpha virt. eigenvalues --    2.02194   2.03141   2.04498   2.06554   2.09635
 Alpha virt. eigenvalues --    2.13208   2.18259   2.20450   2.21782   2.23910
 Alpha virt. eigenvalues --    2.25454   2.28441   2.29997   2.32853   2.34518
 Alpha virt. eigenvalues --    2.37724   2.39239   2.40269   2.41312   2.42365
 Alpha virt. eigenvalues --    2.43126   2.46877   2.48173   2.50046   2.51818
 Alpha virt. eigenvalues --    2.52981   2.53893   2.56607   2.57735   2.58212
 Alpha virt. eigenvalues --    2.58942   2.60988   2.62966   2.64864   2.65538
 Alpha virt. eigenvalues --    2.71820   2.72172   2.73245   2.74486   2.75040
 Alpha virt. eigenvalues --    2.76577   2.79476   2.79983   2.84605   2.86014
 Alpha virt. eigenvalues --    2.86265   2.89861   2.90493   2.93087   2.93244
 Alpha virt. eigenvalues --    2.94604   2.95732   2.96105   2.97390   2.98845
 Alpha virt. eigenvalues --    3.00091   3.01878   3.04599   3.06520   3.07063
 Alpha virt. eigenvalues --    3.10019   3.11353   3.12835   3.13297   3.13424
 Alpha virt. eigenvalues --    3.14088   3.15751   3.17421   3.20857   3.21065
 Alpha virt. eigenvalues --    3.23376   3.24275   3.26012   3.27547   3.28610
 Alpha virt. eigenvalues --    3.30521   3.34964   3.36603   3.37130   3.44311
 Alpha virt. eigenvalues --    3.44553   3.48566   3.52640   3.56085   3.57159
 Alpha virt. eigenvalues --    3.60595   3.64720   3.66504   3.67245   3.72949
 Alpha virt. eigenvalues --    3.73421   3.75005   3.75773   3.77920   3.82260
 Alpha virt. eigenvalues --    3.90726   3.94074   3.95904   3.96748   3.98154
 Alpha virt. eigenvalues --    3.99628   4.00118   4.03275   4.11020   4.15621
 Alpha virt. eigenvalues --    4.21128   4.22982   4.26861   4.32599   4.34880
 Alpha virt. eigenvalues --    4.38599   4.39649   4.48058   4.48914   4.53611
 Alpha virt. eigenvalues --    4.58281   4.59751   4.61520   4.64684   4.67894
 Alpha virt. eigenvalues --    4.78705   4.89616   4.94335   4.96666   4.98535
 Alpha virt. eigenvalues --    5.01659   5.02104   5.05305   5.06457   5.11312
 Alpha virt. eigenvalues --    5.16071   5.22052   5.24221   5.25773   5.29851
 Alpha virt. eigenvalues --    5.34414   5.39617   5.48837   5.57020   5.59915
 Alpha virt. eigenvalues --    5.60612   5.71415   5.82474   6.04462   6.08603
 Alpha virt. eigenvalues --    6.16132   6.26503   6.31702   6.41209   6.48026
 Alpha virt. eigenvalues --    6.59063   6.65940   6.77879   6.83470   6.92658
 Alpha virt. eigenvalues --    7.05036  21.94587  22.20939  22.40832  22.52690
 Alpha virt. eigenvalues --   22.66392  22.71100  22.97557  31.78052  43.55331
 Alpha virt. eigenvalues --   43.66586
          Condensed to atoms (all electrons):
               1          2          3          4          5          6
     1  C    4.956985   0.388382   0.004335  -0.017934  -0.164565   0.430032
     2  C    0.388382   4.889357   0.475721  -0.035684   0.044132  -0.058566
     3  C    0.004335   0.475721   4.956702   0.368833  -0.144973   0.021029
     4  C   -0.017934  -0.035684   0.368833   4.721285   0.326761  -0.028935
     5  C   -0.164565   0.044132  -0.144973   0.326761   5.532219   0.229043
     6  C    0.430032  -0.058566   0.021029  -0.028935   0.229043   5.465264
     7  H    0.406660  -0.035168   0.004238  -0.001502   0.008132  -0.022994
     8  H   -0.035263   0.420965  -0.031065   0.005897  -0.000451   0.005466
     9  H    0.004593  -0.028922   0.402838  -0.020341   0.006633  -0.001989
    10  N    0.003301  -0.000993  -0.037056   0.620529  -0.101255   0.023441
    11  H    0.005004  -0.000806   0.002679  -0.030572   0.392129  -0.007937
    12  H    0.000447  -0.001501   0.014128  -0.060284  -0.019803   0.007373
    13  C   -0.016405   0.001390  -0.001483   0.010315  -0.062087   0.190133
    14  O    0.005894  -0.000479   0.000068   0.005940   0.031902  -0.142736
    15  O    0.029973   0.000922   0.000134   0.000399   0.003107  -0.129848
    16  H   -0.002883  -0.000027   0.000002  -0.000035  -0.000244   0.015663
               7          8          9         10         11         12
     1  C    0.406660  -0.035263   0.004593   0.003301   0.005004   0.000447
     2  C   -0.035168   0.420965  -0.028922  -0.000993  -0.000806  -0.001501
     3  C    0.004238  -0.031065   0.402838  -0.037056   0.002679   0.014128
     4  C   -0.001502   0.005897  -0.020341   0.620529  -0.030572  -0.060284
     5  C    0.008132  -0.000451   0.006633  -0.101255   0.392129  -0.019803
     6  C   -0.022994   0.005466  -0.001989   0.023441  -0.007937   0.007373
     7  H    0.419043  -0.003035  -0.000024   0.000002  -0.000086  -0.000002
     8  H   -0.003035   0.449546  -0.004490  -0.000057   0.000027   0.000007
     9  H   -0.000024  -0.004490   0.428403   0.003168  -0.000045  -0.000387
    10  N    0.000002  -0.000057   0.003168   6.251740   0.000459   0.349276
    11  H   -0.000086   0.000027  -0.000045   0.000459   0.412792   0.001599
    12  H   -0.000002   0.000007  -0.000387   0.349276   0.001599   0.448269
    13  C   -0.008278  -0.000290   0.000041  -0.001003  -0.011164  -0.000180
    14  O    0.000277   0.000002  -0.000001   0.000009   0.017218   0.000000
    15  O    0.010525  -0.000066  -0.000001   0.000002   0.000646   0.000000
    16  H   -0.000551  -0.000001   0.000000  -0.000001  -0.000061  -0.000000
              13         14         15         16
     1  C   -0.016405   0.005894   0.029973  -0.002883
     2  C    0.001390  -0.000479   0.000922  -0.000027
     3  C   -0.001483   0.000068   0.000134   0.000002
     4  C    0.010315   0.005940   0.000399  -0.000035
     5  C   -0.062087   0.031902   0.003107  -0.000244
     6  C    0.190133  -0.142736  -0.129848   0.015663
     7  H   -0.008278   0.000277   0.010525  -0.000551
     8  H   -0.000290   0.000002  -0.000066  -0.000001
     9  H    0.000041  -0.000001  -0.000001   0.000000
    10  N   -0.001003   0.000009   0.000002  -0.000001
    11  H   -0.011164   0.017218   0.000646  -0.000061
    12  H   -0.000180   0.000000   0.000000  -0.000000
    13  C    4.554264   0.618931   0.398412  -0.016333
    14  O    0.618931   7.816244  -0.073636   0.003091
    15  O    0.398412  -0.073636   7.849751   0.290965
    16  H   -0.016333   0.003091   0.290965   0.350642
 Mulliken charges:
               1
     1  C    0.001441
     2  C   -0.058723
     3  C   -0.036130
     4  C    0.135330
     5  C   -0.080681
     6  C    0.005561
     7  H    0.222762
     8  H    0.192806
     9  H    0.210525
    10  N   -0.111563
    11  H    0.218118
    12  H    0.261058
    13  C    0.343736
    14  O   -0.282726
    15  O   -0.381285
    16  H    0.359772
 Sum of Mulliken charges =   1.00000
 Mulliken charges with hydrogens summed into heavy atoms:
               1
     1  C    0.224204
     2  C    0.134083
     3  C    0.174395
     4  C    0.135330
     5  C    0.137437
     6  C    0.005561
    10  N    0.149496
    13  C    0.343736
    14  O   -0.282726
    15  O   -0.021513
 Electronic spatial extent (au):  <R**2>=           1528.6989
 Charge=              1.0000 electrons
 Dipole moment (field-independent basis, Debye):
    X=             -3.5363    Y=              2.3536    Z=              0.7476  Tot=              4.3132
 Quadrupole moment (field-independent basis, Debye-Ang):
   XX=            -35.7956   YY=            -38.9059   ZZ=            -54.8376
   XY=              3.8112   XZ=              3.2415   YZ=              0.2542
 Traceless Quadrupole moment (field-independent basis, Debye-Ang):
   XX=              7.3841   YY=              4.2738   ZZ=            -11.6579
   XY=              3.8112   XZ=              3.2415   YZ=              0.2542
 Octapole moment (field-independent basis, Debye-Ang**2):
  XXX=             43.5187  YYY=              1.5869  ZZZ=              0.4098  XYY=            -32.9533
  XXY=             17.7127  XXZ=             13.4270  XZZ=              7.5872  YZZ=             -2.5968
  YYZ=              0.1000  XYZ=              1.3554
 Hexadecapole moment (field-independent basis, Debye-Ang**3):
 XXXX=          -1079.8452 YYYY=           -397.7586 ZZZZ=            -54.4616 XXXY=             -0.5626
 XXXZ=             53.9233 YYYX=             45.1176 YYYZ=             -0.2977 ZZZX=              2.0559
 ZZZY=              0.2463 XXYY=           -272.3219 XXZZ=           -227.2343 YYZZ=            -98.5069
 XXYZ=              5.7111 YYXZ=              0.5044 ZZXY=              3.4990
 N-N= 4.675251283429D+02 E-N=-2.031601525568D+03  KE= 4.726027523873D+02
   1 Symmetry operations used in ECPInt.
 ECPInt:  NShTT=    9045 NPrTT=   28204 LenC2=    8635 LenP2D=   20841.
 LDataN:  DoStor=T MaxTD1= 7 Len=  274
 Calling FoFJK, ICntrl=      2127 FMM=F ISym2X=0 I1Cent= 0 IOpClX= 0 NMat=1 NMatS=1 NMatT=0.
 ***** Axes restored to original set *****
 -------------------------------------------------------------------
 Center     Atomic                   Forces (Hartrees/Bohr)
 Number     Number              X              Y              Z
 -------------------------------------------------------------------
      1        6           0.006420018    0.018957297    0.000785596
      2        6          -0.008262284   -0.004839800   -0.000231815
      3        6          -0.038458276    0.018202481    0.000245278
      4        6          -0.016814811   -0.006432658    0.000205208
      5        6           0.038271718    0.010986895    0.000741928
      6        6          -0.015401169   -0.038857416   -0.005351604
      7        1          -0.001492504   -0.010189051   -0.000390805
      8        1           0.006516912   -0.006048736   -0.000199557
      9        1           0.004582811    0.010033186    0.000448926
     10        7           0.039774384   -0.027604411   -0.000908307
     11        1          -0.007854086    0.006286960   -0.000114252
     12        1          -0.021226571    0.000075947   -0.000132833
     13        6          -0.088550006    0.000219211    0.000671948
     14        8           0.080389317   -0.034747106    0.002444491
     15        8           0.035976802    0.062340553    0.003169448
     16        1          -0.013872254    0.001616648   -0.001383650
 -------------------------------------------------------------------
 Cartesian Forces:  Max     0.088550006 RMS     0.025040860

 GradGradGradGradGradGradGradGradGradGradGradGradGradGradGradGradGradGrad
 Berny optimization.
 FormGI is forming the generalized inverse of G from B-inverse, IUseBI=4.
 Internal  Forces:  Max     0.087319247 RMS     0.016465245
 Search for a local minimum.
 Step number   1 out of a maximum of   81
 All quantities printed in internal units (Hartrees-Bohrs-Radians)
 Mixed Optimization -- RFO/linear search
 Second derivative matrix not updated -- first step.
 ITU=  0
     Eigenvalues ---    0.00237   0.00590   0.00593   0.01149   0.01295
     Eigenvalues ---    0.01394   0.01578   0.01632   0.01880   0.02076
     Eigenvalues ---    0.02209   0.02321   0.03099   0.16000   0.16000
     Eigenvalues ---    0.16000   0.16000   0.16000   0.16000   0.22000
     Eigenvalues ---    0.23374   0.23525   0.25000   0.25000   0.25000
     Eigenvalues ---    0.25000   0.28519   0.29184   0.29550   0.37230
     Eigenvalues ---    0.37230   0.37230   0.37230   0.40989   0.41397
     Eigenvalues ---    0.42402   0.47688   0.50658   0.53770   0.55473
     Eigenvalues ---    0.69002   0.80209
 RFO step:  Lambda=-4.21833041D-02 EMin= 2.36824198D-03
 Linear search not attempted -- first point.
 Maximum step size (   0.300) exceeded in Quadratic search.
    -- Step size scaled by   0.931
 Iteration  1 RMS(Cart)=  0.06239556 RMS(Int)=  0.00202305
 Iteration  2 RMS(Cart)=  0.00191937 RMS(Int)=  0.00003849
 Iteration  3 RMS(Cart)=  0.00001202 RMS(Int)=  0.00003777
 Iteration  4 RMS(Cart)=  0.00000000 RMS(Int)=  0.00003777
 Variable       Old X    -DE/DX   Delta X   Delta X   Delta X     New X
                                 (Linear)    (Quad)   (Total)
    R1        2.67537  -0.00678   0.00000  -0.01246  -0.01248   2.66289
    R2        2.67537  -0.00313   0.00000  -0.00542  -0.00545   2.66992
    R3        2.02201   0.01018   0.00000   0.02287   0.02287   2.04488
    R4        2.56236   0.00709   0.00000   0.01155   0.01156   2.57391
    R5        2.02201   0.00872   0.00000   0.01958   0.01958   2.04159
    R6        2.88378  -0.03644   0.00000  -0.10071  -0.10068   2.78310
    R7        2.02201   0.00882   0.00000   0.01981   0.01981   2.04182
    R8        2.88378  -0.03076   0.00000  -0.08541  -0.08539   2.79840
    R9        2.44455  -0.02771   0.00000  -0.03523  -0.03523   2.40932
   R10        2.56236   0.00419   0.00000   0.00663   0.00662   2.56897
   R11        2.02201   0.00987   0.00000   0.02217   0.02217   2.04418
   R12        2.91018  -0.02768   0.00000  -0.07871  -0.07871   2.83147
   R13        1.88973   0.01851   0.00000   0.03320   0.03320   1.92292
   R14        2.37803  -0.08732   0.00000  -0.09629  -0.09629   2.28174
   R15        2.70231  -0.06298   0.00000  -0.12971  -0.12971   2.57260
   R16        1.81414   0.00995   0.00000   0.01552   0.01552   1.82965
    A1        2.13942  -0.00289   0.00000  -0.00739  -0.00745   2.13197
    A2        2.07188   0.00304   0.00000   0.01105   0.01108   2.08296
    A3        2.07188  -0.00015   0.00000  -0.00366  -0.00363   2.06825
    A4        2.11717  -0.00585   0.00000  -0.01888  -0.01889   2.09828
    A5        2.08301   0.00114   0.00000   0.00123   0.00124   2.08425
    A6        2.08301   0.00471   0.00000   0.01765   0.01765   2.10066
    A7        2.07286   0.00468   0.00000   0.01573   0.01577   2.08863
    A8        2.10516   0.00437   0.00000   0.02303   0.02301   2.12817
    A9        2.10516  -0.00905   0.00000  -0.03876  -0.03878   2.06638
   A10        2.04688   0.00594   0.00000   0.01621   0.01627   2.06315
   A11        2.11815  -0.01553   0.00000  -0.04813  -0.04816   2.06999
   A12        2.11815   0.00959   0.00000   0.03192   0.03189   2.15004
   A13        2.07286   0.00366   0.00000   0.01112   0.01113   2.08399
   A14        2.10516  -0.00378   0.00000  -0.01457  -0.01457   2.09059
   A15        2.10516   0.00013   0.00000   0.00345   0.00344   2.10861
   A16        2.11717  -0.00555   0.00000  -0.01679  -0.01683   2.10034
   A17        2.08301   0.00825   0.00000   0.02584   0.02586   2.10886
   A18        2.08301  -0.00270   0.00000  -0.00905  -0.00903   2.07398
   A19        2.09440  -0.01964   0.00000  -0.09045  -0.09045   2.00395
   A20        2.09440   0.00814   0.00000   0.02593   0.02590   2.12029
   A21        2.09440  -0.03180   0.00000  -0.10131  -0.10134   1.99305
   A22        2.09440   0.02366   0.00000   0.07539   0.07536   2.16975
   A23        1.91063  -0.01052   0.00000  -0.04843  -0.04843   1.86220
    D1       -0.00000   0.00004   0.00000   0.00060   0.00059   0.00059
    D2        3.14159   0.00000   0.00000   0.00019   0.00018  -3.14142
    D3        3.14159   0.00010   0.00000   0.00150   0.00151  -3.14009
    D4       -0.00000   0.00007   0.00000   0.00109   0.00109   0.00109
    D5        0.00000   0.00005   0.00000   0.00061   0.00061   0.00061
    D6       -3.14159   0.00022   0.00000   0.00313   0.00314  -3.13845
    D7       -3.14159  -0.00001   0.00000  -0.00029  -0.00030   3.14130
    D8        0.00000   0.00015   0.00000   0.00223   0.00224   0.00224
    D9        0.00000  -0.00003   0.00000  -0.00030  -0.00032  -0.00032
   D10       -3.14159  -0.00002   0.00000  -0.00022  -0.00024   3.14136
   D11       -3.14159   0.00000   0.00000   0.00011   0.00010  -3.14149
   D12        0.00000   0.00001   0.00000   0.00019   0.00018   0.00019
   D13       -0.00000  -0.00005   0.00000  -0.00102  -0.00102  -0.00102
   D14       -3.14159   0.00009   0.00000   0.00134   0.00131  -3.14028
   D15        3.14159  -0.00007   0.00000  -0.00110  -0.00110   3.14049
   D16       -0.00000   0.00007   0.00000   0.00127   0.00123   0.00123
   D17        0.00000   0.00014   0.00000   0.00215   0.00217   0.00217
   D18        3.14159   0.00011   0.00000   0.00176   0.00179  -3.13980
   D19        3.14159  -0.00001   0.00000  -0.00022  -0.00026   3.14133
   D20       -0.00000  -0.00003   0.00000  -0.00061  -0.00064  -0.00065
   D21        3.14159   0.00001   0.00000  -0.00020  -0.00019   3.14140
   D22        0.00000   0.00015   0.00000   0.00227   0.00226   0.00226
   D23       -0.00000  -0.00014   0.00000  -0.00195  -0.00196  -0.00197
   D24        3.14159  -0.00030   0.00000  -0.00447  -0.00445   3.13714
   D25        3.14159  -0.00011   0.00000  -0.00156  -0.00158   3.14001
   D26       -0.00000  -0.00028   0.00000  -0.00408  -0.00407  -0.00407
   D27        3.14159   0.00017   0.00000   0.00341   0.00332  -3.13828
   D28       -0.00000  -0.00056   0.00000  -0.01078  -0.01072  -0.01072
   D29       -0.00000   0.00033   0.00000   0.00588   0.00582   0.00581
   D30        3.14159  -0.00040   0.00000  -0.00831  -0.00822   3.13337
   D31        2.61799   0.00723   0.00000   0.12297   0.12312   2.74112
   D32       -0.52360   0.00650   0.00000   0.10878   0.10863  -0.41497
         Item               Value     Threshold  Converged?
 Maximum Force            0.087319     0.000450     NO 
 RMS     Force            0.016465     0.000300     NO 
 Maximum Displacement     0.215235     0.001800     NO 
 RMS     Displacement     0.062990     0.001200     NO 
 Predicted change in Energy=-2.345903D-02
 GradGradGradGradGradGradGradGradGradGradGradGradGradGradGradGradGradGrad

                          Input orientation:                          
 ---------------------------------------------------------------------
 Center     Atomic      Atomic             Coordinates (Angstroms)
 Number     Number       Type             X           Y           Z
 ---------------------------------------------------------------------
      1          6           0        0.024114   -1.795594   -0.057437
      2          6           0        1.249293   -1.100295   -0.023199
      3          6           0        1.264043    0.260797    0.025874
      4          6           0       -0.007613    1.003507    0.042609
      5          6           0       -1.270193    0.230671    0.003572
      6          6           0       -1.220484   -1.127047   -0.043466
      7          1           0        0.028965   -2.877040   -0.094885
      8          1           0        2.175515   -1.656292   -0.035833
      9          1           0        2.187100    0.821749    0.053219
     10          7           0        0.029962    2.277130    0.087249
     11          1           0       -2.218822    0.750435    0.013108
     12          1           0       -0.880615    2.731231    0.096349
     13          6           0       -2.505801   -1.896398   -0.076749
     14          8           0       -3.575884   -1.337129   -0.068661
     15          8           0       -2.346177   -3.247190   -0.133211
     16          1           0       -3.161979   -3.638350    0.211602
 ---------------------------------------------------------------------
                    Distance matrix (angstroms):
                    1          2          3          4          5
     1  C    0.000000
     2  C    1.409140   0.000000
     3  C    2.402730   1.362056   0.000000
     4  C    2.801069   2.451556   1.472755   0.000000
     5  C    2.405142   2.849560   2.534514   1.480847   0.000000
     6  C    1.412860   2.470004   2.846716   2.453105   1.359442
     7  H    1.082104   2.156655   3.374318   3.883154   3.369773
     8  H    2.156014   1.080362   2.123634   3.441909   3.928752
     9  H    3.397240   2.139994   1.080485   2.202252   3.507807
    10  N    4.075298   3.592487   2.364808   1.274958   2.425984
    11  H    3.393819   3.931200   3.517138   2.225839   1.081731
    12  H    4.618910   4.385360   3.272242   1.936504   2.532425
    13  C    2.531996   3.838929   4.344623   3.829444   2.461220
    14  O    3.629092   4.831200   5.097765   4.268902   2.789163
    15  O    2.780495   4.189113   5.036365   4.854711   3.643071
    16  H    3.690436   5.094720   5.901484   5.614750   4.311781
                    6          7          8          9         10
     6  C    0.000000
     7  H    2.150870   0.000000
     8  H    3.436999   2.470099   0.000000
     9  H    3.926675   4.284918   2.479668   0.000000
    10  N    3.628928   5.157387   4.482226   2.602409   0.000000
    11  H    2.127162   4.268815   5.010482   4.406681   2.719067
    12  H    3.875740   5.684769   5.348622   3.613703   1.017566
    13  C    1.498349   2.717908   4.687648   5.424807   4.886238
    14  O    2.364885   3.920070   5.760342   6.155290   5.107769
    15  O    2.402134   2.404118   4.794386   6.094393   6.017703
    16  H    3.184510   3.294791   5.699001   6.966363   6.722860
                   11         12         13         14         15
    11  H    0.000000
    12  H    2.391919   0.000000
    13  C    2.663862   4.907763   0.000000
    14  O    2.491231   4.882956   1.207446   0.000000
    15  O    4.002329   6.159715   1.361362   2.272593   0.000000
    16  H    4.493371   6.766791   1.883643   2.354885   0.968212
                   16
    16  H    0.000000
 Stoichiometry    C7H6NO2(1+)
 Framework group  C1[X(C7H6NO2)]
 Deg. of freedom    42
 Full point group                 C1      NOp   1
 Largest Abelian subgroup         C1      NOp   1
 Largest concise Abelian subgroup C1      NOp   1
                         Standard orientation:                         
 ---------------------------------------------------------------------
 Center     Atomic      Atomic             Coordinates (Angstroms)
 Number     Number       Type             X           Y           Z
 ---------------------------------------------------------------------
      1          6           0        0.125823    1.412006   -0.006922
      2          6           0       -1.227856    1.803411   -0.001416
      3          6           0       -2.213373    0.863242    0.004538
      4          6           0       -1.857558   -0.565885    0.004789
      5          6           0       -0.422162   -0.929874   -0.002857
      6          6           0        0.515889    0.054058   -0.007238
      7          1           0        0.897249    2.170847   -0.010202
      8          1           0       -1.476246    2.854831   -0.001569
      9          1           0       -3.259837    1.132205    0.009063
     10          7           0       -2.796302   -1.428590    0.008951
     11          1           0       -0.132123   -1.971995   -0.004533
     12          1           0       -2.485829   -2.397634    0.008705
     13          6           0        1.964512   -0.328748   -0.009119
     14          8           0        2.311105   -1.485374   -0.012822
     15          8           0        2.821129    0.729221   -0.023742
     16          1           0        3.661378    0.411821    0.337743
 ---------------------------------------------------------------------
 Rotational constants (GHZ):           2.7459885           0.9609741           0.7121116
 Standard basis: def2TZVP (5D, 7F)
 There are   396 symmetry adapted cartesian basis functions of A   symmetry.
 There are   346 symmetry adapted basis functions of A   symmetry.
   346 basis functions,   558 primitive gaussians,   396 cartesian basis functions
    35 alpha electrons       35 beta electrons
       nuclear repulsion energy       476.9399162156 Hartrees.
 NAtoms=   16 NActive=   16 NUniq=   16 SFac= 1.00D+00 NAtFMM=   60 NAOKFM=F Big=F
 Integral buffers will be    131072 words long.
 Raffenetti 2 integral format.
 Two-electron integral symmetry is turned on.
 One-electron integrals computed using PRISM.
   1 Symmetry operations used in ECPInt.
 ECPInt:  NShTT=    9045 NPrTT=   28204 LenC2=    8659 LenP2D=   21011.
 LDataN:  DoStor=T MaxTD1= 6 Len=  172
 NBasis=   346 RedAO= T EigKep=  9.95D-06  NBF=   346
 NBsUse=   346 1.00D-06 EigRej= -1.00D+00 NBFU=   346
 Initial guess from the checkpoint file:  "C6H5NH+.chk"
 B after Tr=     0.000000    0.000000   -0.000000
         Rot=    0.999999   -0.000038   -0.000001   -0.001599 Ang=  -0.18 deg.
 ExpMin= 9.52D-02 ExpMax= 2.70D+04 ExpMxC= 9.22D+02 IAcc=2 IRadAn=         4 AccDes= 0.00D+00
 Harris functional with IExCor=  402 and IRadAn=       4 diagonalized for initial guess.
 HarFok:  IExCor=  402 AccDes= 0.00D+00 IRadAn=         4 IDoV= 1 UseB2=F ITyADJ=14
 ICtDFT=  3500011 ScaDFX=  1.000000  1.000000  1.000000  1.000000
 FoFCou: FMM=F IPFlag=           0 FMFlag=      100000 FMFlg1=           0
         NFxFlg=           0 DoJE=T BraDBF=F KetDBF=T FulRan=T
         wScrn=  0.000000 ICntrl=       500 IOpCl=  0 I1Cent=   200000004 NGrid=           0
         NMat0=    1 NMatS0=      1 NMatT0=    0 NMatD0=    1 NMtDS0=    0 NMtDT0=    0
 Petite list used in FoFCou.
 Requested convergence on RMS density matrix=1.00D-08 within 128 cycles.
 Requested convergence on MAX density matrix=1.00D-06.
 Requested convergence on             energy=1.00D-06.
 No special actions if energy rises.
 Integral accuracy reduced to 1.0D-05 until final iterations.
 Initial convergence to 1.0D-05 achieved.  Increase integral accuracy.
 SCF Done:  E(RB3LYP) =  -475.416891204     A.U. after   13 cycles
            NFock= 13  Conv=0.85D-08     -V/T= 2.0048
   1 Symmetry operations used in ECPInt.
 ECPInt:  NShTT=    9045 NPrTT=   28204 LenC2=    8659 LenP2D=   21011.
 LDataN:  DoStor=T MaxTD1= 7 Len=  274
 Calling FoFJK, ICntrl=      2127 FMM=F ISym2X=0 I1Cent= 0 IOpClX= 0 NMat=1 NMatS=1 NMatT=0.
 ***** Axes restored to original set *****
 -------------------------------------------------------------------
 Center     Atomic                   Forces (Hartrees/Bohr)
 Number     Number              X              Y              Z
 -------------------------------------------------------------------
      1        6           0.005872762    0.006439379    0.000328232
      2        6           0.001868295   -0.003440602   -0.000128956
      3        6          -0.008012288    0.003892442    0.000076902
      4        6          -0.009228568   -0.018594989   -0.000491856
      5        6           0.014017445    0.006709731    0.000362395
      6        6          -0.002807745   -0.010571617   -0.003326941
      7        1          -0.000530826   -0.000997862   -0.000054218
      8        1           0.000645227   -0.000968367   -0.000069582
      9        1           0.000066188    0.002742689    0.000130387
     10        7           0.011870954    0.009320733    0.000321370
     11        1          -0.001690835    0.000462070   -0.000145256
     12        1          -0.005937619    0.000628846    0.000011249
     13        6          -0.023277254   -0.003829064   -0.004955904
     14        8           0.014719839   -0.007379618    0.003975654
     15        8           0.007761589    0.020383399    0.010556781
     16        1          -0.005337163   -0.004797168   -0.006590258
 -------------------------------------------------------------------
 Cartesian Forces:  Max     0.023277254 RMS     0.007639281

 GradGradGradGradGradGradGradGradGradGradGradGradGradGradGradGradGradGrad
 Berny optimization.
 Using GEDIIS/GDIIS optimizer.
 FormGI is forming the generalized inverse of G from B-inverse, IUseBI=4.
 Internal  Forces:  Max     0.016436569 RMS     0.004287568
 Search for a local minimum.
 Step number   2 out of a maximum of   81
 All quantities printed in internal units (Hartrees-Bohrs-Radians)
 Mixed Optimization -- RFO/linear search
 Update second derivatives using D2CorX and points    1    2
 DE= -2.51D-02 DEPred=-2.35D-02 R= 1.07D+00
 TightC=F SS=  1.41D+00  RLast= 3.42D-01 DXNew= 5.0454D-01 1.0261D+00
 Trust test= 1.07D+00 RLast= 3.42D-01 DXMaxT set to 5.05D-01
 ITU=  1  0
 Use linear search instead of GDIIS.
     Eigenvalues ---    0.00237   0.00588   0.00606   0.01135   0.01259
     Eigenvalues ---    0.01414   0.01592   0.01635   0.01880   0.02072
     Eigenvalues ---    0.02209   0.02325   0.03099   0.15627   0.16000
     Eigenvalues ---    0.16000   0.16000   0.16000   0.16682   0.21729
     Eigenvalues ---    0.22901   0.23414   0.24236   0.25000   0.25000
     Eigenvalues ---    0.25124   0.28185   0.29465   0.30484   0.37218
     Eigenvalues ---    0.37230   0.37230   0.37351   0.39593   0.41629
     Eigenvalues ---    0.42529   0.47499   0.50597   0.53699   0.55371
     Eigenvalues ---    0.71125   0.79650
 RFO step:  Lambda=-5.73415975D-03 EMin= 2.36836547D-03
 Quartic linear search produced a step of  0.24910.
 Iteration  1 RMS(Cart)=  0.03336785 RMS(Int)=  0.02330062
 Iteration  2 RMS(Cart)=  0.02161644 RMS(Int)=  0.00157878
 Iteration  3 RMS(Cart)=  0.00162618 RMS(Int)=  0.00010267
 Iteration  4 RMS(Cart)=  0.00000545 RMS(Int)=  0.00010260
 Iteration  5 RMS(Cart)=  0.00000000 RMS(Int)=  0.00010260
 Variable       Old X    -DE/DX   Delta X   Delta X   Delta X     New X
                                 (Linear)    (Quad)   (Total)
    R1        2.66289  -0.00095  -0.00311   0.00054  -0.00258   2.66031
    R2        2.66992   0.00372  -0.00136   0.01228   0.01092   2.68084
    R3        2.04488   0.00100   0.00570  -0.00202   0.00368   2.04856
    R4        2.57391   0.00176   0.00288   0.00151   0.00437   2.57829
    R5        2.04159   0.00105   0.00488  -0.00108   0.00380   2.04539
    R6        2.78310  -0.00748  -0.02508  -0.00643  -0.03151   2.75159
    R7        2.04182   0.00148   0.00494   0.00028   0.00521   2.04703
    R8        2.79840  -0.00976  -0.02127  -0.01933  -0.04059   2.75780
    R9        2.40932   0.01013  -0.00878   0.02508   0.01631   2.42563
   R10        2.56897   0.00327   0.00165   0.00610   0.00776   2.57673
   R11        2.04418   0.00170   0.00552   0.00045   0.00597   2.05015
   R12        2.83147   0.00295  -0.01961   0.03215   0.01254   2.84401
   R13        1.92292   0.00559   0.00827   0.00711   0.01538   1.93830
   R14        2.28174  -0.01644  -0.02399  -0.00615  -0.03013   2.25161
   R15        2.57260  -0.01535  -0.03231  -0.01642  -0.04873   2.52387
   R16        1.82965   0.00409   0.00387   0.00575   0.00961   1.83927
    A1        2.13197   0.00189  -0.00185   0.01400   0.01214   2.14411
    A2        2.08296  -0.00040   0.00276  -0.00521  -0.00245   2.08051
    A3        2.06825  -0.00149  -0.00090  -0.00879  -0.00969   2.05856
    A4        2.09828  -0.00323  -0.00471  -0.01206  -0.01679   2.08149
    A5        2.08425   0.00110   0.00031   0.00478   0.00510   2.08935
    A6        2.10066   0.00212   0.00440   0.00728   0.01169   2.11234
    A7        2.08863   0.00167   0.00393   0.00333   0.00725   2.09588
    A8        2.12817   0.00153   0.00573   0.00630   0.01203   2.14021
    A9        2.06638  -0.00319  -0.00966  -0.00962  -0.01928   2.04710
   A10        2.06315   0.00237   0.00405   0.00516   0.00922   2.07237
   A11        2.06999  -0.00597  -0.01200  -0.01525  -0.02725   2.04274
   A12        2.15004   0.00360   0.00794   0.01009   0.01803   2.16807
   A13        2.08399   0.00233   0.00277   0.00871   0.01150   2.09549
   A14        2.09059  -0.00075  -0.00363   0.00159  -0.00205   2.08854
   A15        2.10861  -0.00159   0.00086  -0.01030  -0.00945   2.09915
   A16        2.10034  -0.00503  -0.00419  -0.01914  -0.02332   2.07702
   A17        2.10886   0.00545   0.00644   0.01920   0.02563   2.13449
   A18        2.07398  -0.00042  -0.00225  -0.00006  -0.00231   2.07167
   A19        2.00395  -0.00401  -0.02253  -0.00175  -0.02428   1.97967
   A20        2.12029   0.00431   0.00645   0.01430   0.02025   2.14054
   A21        1.99305  -0.00967  -0.02524  -0.02002  -0.04576   1.94729
   A22        2.16975   0.00536   0.01877   0.00650   0.02478   2.19453
   A23        1.86220   0.00618  -0.01206   0.06109   0.04902   1.91123
    D1        0.00059   0.00004   0.00015   0.00136   0.00150   0.00209
    D2       -3.14142   0.00001   0.00004   0.00068   0.00072  -3.14070
    D3       -3.14009   0.00005   0.00038   0.00060   0.00097  -3.13913
    D4        0.00109   0.00002   0.00027  -0.00008   0.00019   0.00128
    D5        0.00061   0.00002   0.00015  -0.00008   0.00006   0.00067
    D6       -3.13845   0.00010   0.00078   0.00129   0.00208  -3.13636
    D7        3.14130   0.00001  -0.00007   0.00068   0.00059  -3.14130
    D8        0.00224   0.00009   0.00056   0.00205   0.00261   0.00485
    D9       -0.00032  -0.00005  -0.00008  -0.00153  -0.00162  -0.00193
   D10        3.14136  -0.00003  -0.00006  -0.00122  -0.00128   3.14008
   D11       -3.14149  -0.00002   0.00003  -0.00084  -0.00083   3.14087
   D12        0.00019  -0.00001   0.00005  -0.00054  -0.00049  -0.00031
   D13       -0.00102  -0.00001  -0.00025   0.00052   0.00028  -0.00074
   D14       -3.14028   0.00004   0.00033   0.00061   0.00093  -3.13935
   D15        3.14049  -0.00002  -0.00027   0.00023  -0.00003   3.14046
   D16        0.00123   0.00003   0.00031   0.00032   0.00062   0.00185
   D17        0.00217   0.00007   0.00054   0.00075   0.00131   0.00349
   D18       -3.13980   0.00006   0.00045   0.00081   0.00128  -3.13852
   D19        3.14133   0.00000  -0.00007   0.00062   0.00055  -3.14131
   D20       -0.00065  -0.00000  -0.00016   0.00068   0.00051  -0.00014
   D21        3.14140   0.00000  -0.00005   0.00008   0.00004   3.14144
   D22        0.00226   0.00006   0.00056   0.00019   0.00075   0.00301
   D23       -0.00197  -0.00007  -0.00049  -0.00094  -0.00144  -0.00341
   D24        3.13714  -0.00015  -0.00111  -0.00226  -0.00334   3.13380
   D25        3.14001  -0.00006  -0.00039  -0.00100  -0.00140   3.13861
   D26       -0.00407  -0.00014  -0.00101  -0.00232  -0.00331  -0.00738
   D27       -3.13828  -0.00021   0.00083  -0.02637  -0.02553   3.11938
   D28       -0.01072   0.00007  -0.00267   0.03250   0.02978   0.01906
   D29        0.00581  -0.00012   0.00145  -0.02498  -0.02348  -0.01767
   D30        3.13337   0.00016  -0.00205   0.03388   0.03182  -3.11799
   D31        2.74112   0.00703   0.03067   0.27595   0.30658   3.04770
   D32       -0.41497   0.00730   0.02706   0.33679   0.36389  -0.05108
         Item               Value     Threshold  Converged?
 Maximum Force            0.016437     0.000450     NO 
 RMS     Force            0.004288     0.000300     NO 
 Maximum Displacement     0.343218     0.001800     NO 
 RMS     Displacement     0.052725     0.001200     NO 
 Predicted change in Energy=-5.845191D-03
 GradGradGradGradGradGradGradGradGradGradGradGradGradGradGradGradGradGrad

                          Input orientation:                          
 ---------------------------------------------------------------------
 Center     Atomic      Atomic             Coordinates (Angstroms)
 Number     Number       Type             X           Y           Z
 ---------------------------------------------------------------------
      1          6           0        0.031546   -1.793699   -0.041373
      2          6           0        1.256751   -1.100662   -0.021265
      3          6           0        1.250939    0.263164    0.016864
      4          6           0       -0.012073    0.987509    0.033925
      5          6           0       -1.257431    0.227122    0.008562
      6          6           0       -1.225122   -1.135598   -0.026209
      7          1           0        0.037225   -2.877374   -0.069333
      8          1           0        2.186616   -1.654460   -0.035074
      9          1           0        2.160770    0.850776    0.035220
     10          7           0        0.050646    2.269127    0.067363
     11          1           0       -2.207071    0.751612    0.017918
     12          1           0       -0.869457    2.722309    0.077708
     13          6           0       -2.527742   -1.889210   -0.041373
     14          8           0       -3.586388   -1.343570   -0.006498
     15          8           0       -2.330788   -3.210173   -0.046269
     16          1           0       -3.186996   -3.666687    0.029979
 ---------------------------------------------------------------------
                    Distance matrix (angstroms):
                    1          2          3          4          5
     1  C    0.000000
     2  C    1.407776   0.000000
     3  C    2.391860   1.364371   0.000000
     4  C    2.782568   2.444058   1.456080   0.000000
     5  C    2.397430   2.843416   2.508644   1.459365   0.000000
     6  C    1.418640   2.482124   2.844165   2.445953   1.363547
     7  H    1.084051   2.155519   3.368013   3.866576   3.364536
     8  H    2.159573   1.082372   2.134354   3.437876   3.924757
     9  H    3.395985   2.151407   1.083244   2.177142   3.474731
    10  N    4.064326   3.580227   2.338192   1.283588   2.425760
    11  H    3.390210   3.928170   3.492337   2.207695   1.084893
    12  H    4.606551   4.375576   3.247642   1.935602   2.526116
    13  C    2.561069   3.865825   4.349085   3.822273   2.468815
    14  O    3.645994   4.849249   5.097242   4.267468   2.809152
    15  O    2.754459   4.161863   4.989672   4.796186   3.601402
    16  H    3.724538   5.131666   5.927830   5.633976   4.345736
                    6          7          8          9         10
     6  C    0.000000
     7  H    2.151549   0.000000
     8  H    3.450978   2.473172   0.000000
     9  H    3.926032   4.291793   2.506355   0.000000
    10  N    3.637100   5.148334   4.468489   2.542710   0.000000
    11  H    2.127847   4.267788   5.009638   4.369001   2.720769
    12  H    3.875660   5.674517   5.339326   3.561841   1.025705
    13  C    1.504985   2.748873   4.720203   5.430979   4.894045
    14  O    2.370489   3.935362   5.781439   6.151969   5.126895
    15  O    2.350906   2.391395   4.777793   6.055745   5.975523
    16  H    3.202891   3.320914   5.738379   7.000436   6.761480
                   11         12         13         14         15
    11  H    0.000000
    12  H    2.382526   0.000000
    13  C    2.660881   4.902061   0.000000
    14  O    2.508565   4.890825   1.191500   0.000000
    15  O    3.964236   6.111072   1.335573   2.249960   0.000000
    16  H    4.525678   6.796508   1.897137   2.357481   0.973298
                   16
    16  H    0.000000
 Stoichiometry    C7H6NO2(1+)
 Framework group  C1[X(C7H6NO2)]
 Deg. of freedom    42
 Full point group                 C1      NOp   1
 Largest Abelian subgroup         C1      NOp   1
 Largest concise Abelian subgroup C1      NOp   1
                         Standard orientation:                         
 ---------------------------------------------------------------------
 Center     Atomic      Atomic             Coordinates (Angstroms)
 Number     Number       Type             X           Y           Z
 ---------------------------------------------------------------------
      1          6           0        0.109582    1.416962   -0.009609
      2          6           0       -1.245181    1.799549   -0.000688
      3          6           0       -2.210418    0.835305    0.006953
      4          6           0       -1.836409   -0.571917    0.003403
      5          6           0       -0.419552   -0.921347   -0.009339
      6          6           0        0.526209    0.060884   -0.013554
      7          1           0        0.875767    2.183847   -0.013341
      8          1           0       -1.505946    2.850039    0.001137
      9          1           0       -3.268336    1.068018    0.015372
     10          7           0       -2.791412   -1.429554    0.008430
     11          1           0       -0.123992   -1.965188   -0.015030
     12          1           0       -2.465995   -2.402265    0.005424
     13          6           0        1.978412   -0.334181   -0.016452
     14          8           0        2.335313   -1.470814    0.002515
     15          8           0        2.778248    0.735108    0.008845
     16          1           0        3.704035    0.446545    0.092266
 ---------------------------------------------------------------------
 Rotational constants (GHZ):           2.7659924           0.9647810           0.7153278
 Standard basis: def2TZVP (5D, 7F)
 There are   396 symmetry adapted cartesian basis functions of A   symmetry.
 There are   346 symmetry adapted basis functions of A   symmetry.
   346 basis functions,   558 primitive gaussians,   396 cartesian basis functions
    35 alpha electrons       35 beta electrons
       nuclear repulsion energy       478.3615007542 Hartrees.
 NAtoms=   16 NActive=   16 NUniq=   16 SFac= 1.00D+00 NAtFMM=   60 NAOKFM=F Big=F
 Integral buffers will be    131072 words long.
 Raffenetti 2 integral format.
 Two-electron integral symmetry is turned on.
 One-electron integrals computed using PRISM.
   1 Symmetry operations used in ECPInt.
 ECPInt:  NShTT=    9045 NPrTT=   28204 LenC2=    8664 LenP2D=   21030.
 LDataN:  DoStor=T MaxTD1= 6 Len=  172
 NBasis=   346 RedAO= T EigKep=  9.56D-06  NBF=   346
 NBsUse=   346 1.00D-06 EigRej= -1.00D+00 NBFU=   346
 Initial guess from the checkpoint file:  "C6H5NH+.chk"
 B after Tr=    -0.000000   -0.000000    0.000000
         Rot=    0.999995    0.000036   -0.000039   -0.003120 Ang=   0.36 deg.
 ExpMin= 9.52D-02 ExpMax= 2.70D+04 ExpMxC= 9.22D+02 IAcc=2 IRadAn=         4 AccDes= 0.00D+00
 Harris functional with IExCor=  402 and IRadAn=       4 diagonalized for initial guess.
 HarFok:  IExCor=  402 AccDes= 0.00D+00 IRadAn=         4 IDoV= 1 UseB2=F ITyADJ=14
 ICtDFT=  3500011 ScaDFX=  1.000000  1.000000  1.000000  1.000000
 FoFCou: FMM=F IPFlag=           0 FMFlag=      100000 FMFlg1=           0
         NFxFlg=           0 DoJE=T BraDBF=F KetDBF=T FulRan=T
         wScrn=  0.000000 ICntrl=       500 IOpCl=  0 I1Cent=   200000004 NGrid=           0
         NMat0=    1 NMatS0=      1 NMatT0=    0 NMatD0=    1 NMtDS0=    0 NMtDT0=    0
 Petite list used in FoFCou.
 Requested convergence on RMS density matrix=1.00D-08 within 128 cycles.
 Requested convergence on MAX density matrix=1.00D-06.
 Requested convergence on             energy=1.00D-06.
 No special actions if energy rises.
 Integral accuracy reduced to 1.0D-05 until final iterations.
 Initial convergence to 1.0D-05 achieved.  Increase integral accuracy.
 SCF Done:  E(RB3LYP) =  -475.421775654     A.U. after   12 cycles
            NFock= 12  Conv=0.91D-08     -V/T= 2.0046
   1 Symmetry operations used in ECPInt.
 ECPInt:  NShTT=    9045 NPrTT=   28204 LenC2=    8664 LenP2D=   21030.
 LDataN:  DoStor=T MaxTD1= 7 Len=  274
 Calling FoFJK, ICntrl=      2127 FMM=F ISym2X=0 I1Cent= 0 IOpClX= 0 NMat=1 NMatS=1 NMatT=0.
 ***** Axes restored to original set *****
 -------------------------------------------------------------------
 Center     Atomic                   Forces (Hartrees/Bohr)
 Number     Number              X              Y              Z
 -------------------------------------------------------------------
      1        6           0.000418163    0.000462457   -0.000032713
      2        6           0.000650512   -0.000503068    0.000099236
      3        6           0.003407454   -0.000743149   -0.000030055
      4        6          -0.003233540   -0.004427421   -0.000296639
      5        6          -0.000778651    0.000686135    0.000040677
      6        6           0.002075577    0.000659212   -0.002169694
      7        1           0.000038863    0.000232462   -0.000031406
      8        1          -0.000682102    0.000094139    0.000008555
      9        1          -0.000485362    0.000131848    0.000015062
     10        7           0.001202589    0.004919471    0.000240735
     11        1          -0.000168624   -0.000446059    0.000039607
     12        1          -0.000294735   -0.000397526   -0.000058737
     13        6           0.003792608   -0.004699951    0.004676503
     14        8          -0.007754997    0.005845320   -0.001197485
     15        8           0.001629502   -0.002516934    0.000449308
     16        1           0.000182741    0.000703064   -0.001752955
 -------------------------------------------------------------------
 Cartesian Forces:  Max     0.007754997 RMS     0.002271924

 GradGradGradGradGradGradGradGradGradGradGradGradGradGradGradGradGradGrad
 Berny optimization.
 Using GEDIIS/GDIIS optimizer.
 FormGI is forming the generalized inverse of G from B-inverse, IUseBI=4.
 Internal  Forces:  Max     0.009532018 RMS     0.001504494
 Search for a local minimum.
 Step number   3 out of a maximum of   81
 All quantities printed in internal units (Hartrees-Bohrs-Radians)
 Mixed Optimization -- RFO/linear search
 Update second derivatives using D2CorX and points    2    3
 DE= -4.88D-03 DEPred=-5.85D-03 R= 8.36D-01
 TightC=F SS=  1.41D+00  RLast= 4.96D-01 DXNew= 8.4853D-01 1.4894D+00
 Trust test= 8.36D-01 RLast= 4.96D-01 DXMaxT set to 8.49D-01
 ITU=  1  1  0
 Use linear search instead of GDIIS.
     Eigenvalues ---    0.00237   0.00586   0.00607   0.01128   0.01415
     Eigenvalues ---    0.01585   0.01638   0.01690   0.01880   0.02065
     Eigenvalues ---    0.02204   0.02327   0.03099   0.15425   0.16000
     Eigenvalues ---    0.16000   0.16000   0.16026   0.16728   0.21342
     Eigenvalues ---    0.22563   0.23496   0.24091   0.24999   0.25072
     Eigenvalues ---    0.25210   0.28287   0.29471   0.30760   0.37217
     Eigenvalues ---    0.37230   0.37233   0.37392   0.40119   0.41680
     Eigenvalues ---    0.42555   0.47453   0.50579   0.53694   0.55399
     Eigenvalues ---    0.69993   0.83847
 RFO step:  Lambda=-2.15965790D-03 EMin= 2.36827480D-03
 Quartic linear search produced a step of  0.05185.
 Iteration  1 RMS(Cart)=  0.06781871 RMS(Int)=  0.01465821
 Iteration  2 RMS(Cart)=  0.02136837 RMS(Int)=  0.00415923
 Iteration  3 RMS(Cart)=  0.00072943 RMS(Int)=  0.00409820
 Iteration  4 RMS(Cart)=  0.00000245 RMS(Int)=  0.00409820
 Iteration  5 RMS(Cart)=  0.00000003 RMS(Int)=  0.00409820
 Variable       Old X    -DE/DX   Delta X   Delta X   Delta X     New X
                                 (Linear)    (Quad)   (Total)
    R1        2.66031   0.00008  -0.00013  -0.00016  -0.00029   2.66002
    R2        2.68084   0.00049   0.00057   0.00241   0.00297   2.68381
    R3        2.04856  -0.00023   0.00019  -0.00019   0.00000   2.04856
    R4        2.57829   0.00007   0.00023   0.00071   0.00094   2.57923
    R5        2.04539  -0.00063   0.00020  -0.00129  -0.00109   2.04429
    R6        2.75159   0.00260  -0.00163   0.00525   0.00362   2.75521
    R7        2.04703  -0.00034   0.00027  -0.00029  -0.00002   2.04701
    R8        2.75780  -0.00007  -0.00210  -0.00515  -0.00726   2.75054
    R9        2.42563   0.00456   0.00085   0.00886   0.00970   2.43533
   R10        2.57673  -0.00033   0.00040   0.00026   0.00066   2.57739
   R11        2.05015  -0.00007   0.00031   0.00054   0.00085   2.05100
   R12        2.84401   0.00217   0.00065   0.00930   0.00995   2.85396
   R13        1.93830   0.00009   0.00080   0.00206   0.00286   1.94116
   R14        2.25161   0.00953  -0.00156   0.00865   0.00709   2.25870
   R15        2.52387   0.00207  -0.00253  -0.00074  -0.00327   2.52060
   R16        1.83927  -0.00063   0.00050   0.00000   0.00050   1.83977
    A1        2.14411   0.00067   0.00063   0.00441   0.00504   2.14915
    A2        2.08051  -0.00038  -0.00013  -0.00202  -0.00215   2.07837
    A3        2.05856  -0.00030  -0.00050  -0.00239  -0.00289   2.05567
    A4        2.08149  -0.00025  -0.00087  -0.00306  -0.00393   2.07757
    A5        2.08935  -0.00015   0.00026  -0.00063  -0.00037   2.08898
    A6        2.11234   0.00040   0.00061   0.00369   0.00430   2.11664
    A7        2.09588  -0.00072   0.00038  -0.00206  -0.00168   2.09420
    A8        2.14021   0.00074   0.00062   0.00541   0.00603   2.14624
    A9        2.04710  -0.00002  -0.00100  -0.00335  -0.00435   2.04275
   A10        2.07237   0.00059   0.00048   0.00388   0.00436   2.07673
   A11        2.04274  -0.00066  -0.00141  -0.00618  -0.00759   2.03515
   A12        2.16807   0.00006   0.00093   0.00230   0.00324   2.17131
   A13        2.09549  -0.00052   0.00060  -0.00101  -0.00041   2.09507
   A14        2.08854   0.00074  -0.00011   0.00401   0.00390   2.09244
   A15        2.09915  -0.00022  -0.00049  -0.00300  -0.00349   2.09566
   A16        2.07702   0.00022  -0.00121  -0.00216  -0.00337   2.07365
   A17        2.13449   0.00102   0.00133   0.00740   0.00872   2.14322
   A18        2.07167  -0.00123  -0.00012  -0.00524  -0.00536   2.06630
   A19        1.97967  -0.00095  -0.00126  -0.00914  -0.01040   1.96927
   A20        2.14054  -0.00141   0.00105   0.00107  -0.01724   2.12330
   A21        1.94729  -0.00066  -0.00237  -0.00376  -0.02557   1.92172
   A22        2.19453   0.00218   0.00128   0.01676  -0.00224   2.19229
   A23        1.91123  -0.00088   0.00254   0.00004   0.00259   1.91381
    D1        0.00209  -0.00005   0.00008  -0.00243  -0.00235  -0.00027
    D2       -3.14070  -0.00003   0.00004  -0.00176  -0.00172   3.14076
    D3       -3.13913  -0.00002   0.00005  -0.00084  -0.00079  -3.13991
    D4        0.00128  -0.00000   0.00001  -0.00017  -0.00016   0.00112
    D5        0.00067   0.00003   0.00000   0.00188   0.00188   0.00256
    D6       -3.13636   0.00006   0.00011   0.00375   0.00387  -3.13250
    D7       -3.14130   0.00001   0.00003   0.00031   0.00034  -3.14096
    D8        0.00485   0.00004   0.00014   0.00218   0.00232   0.00717
    D9       -0.00193   0.00002  -0.00008   0.00022   0.00013  -0.00180
   D10        3.14008   0.00001  -0.00007   0.00001  -0.00006   3.14002
   D11        3.14087  -0.00000  -0.00004  -0.00046  -0.00050   3.14036
   D12       -0.00031  -0.00001  -0.00003  -0.00067  -0.00069  -0.00100
   D13       -0.00074   0.00002   0.00001   0.00238   0.00239   0.00165
   D14       -3.13935  -0.00003   0.00005  -0.00143  -0.00137  -3.14072
   D15        3.14046   0.00003  -0.00000   0.00258   0.00257  -3.14015
   D16        0.00185  -0.00002   0.00003  -0.00123  -0.00119   0.00066
   D17        0.00349  -0.00004   0.00007  -0.00291  -0.00285   0.00064
   D18       -3.13852  -0.00006   0.00007  -0.00390  -0.00384   3.14083
   D19       -3.14131   0.00002   0.00003   0.00116   0.00121  -3.14011
   D20       -0.00014  -0.00000   0.00003   0.00018   0.00021   0.00007
   D21        3.14144  -0.00001   0.00000   0.00074   0.00074  -3.14101
   D22        0.00301  -0.00007   0.00004  -0.00329  -0.00325  -0.00024
   D23       -0.00341   0.00001  -0.00007   0.00085   0.00078  -0.00263
   D24        3.13380  -0.00001  -0.00017  -0.00092  -0.00108   3.13272
   D25        3.13861   0.00003  -0.00007   0.00184   0.00177   3.14038
   D26       -0.00738   0.00001  -0.00017   0.00007  -0.00009  -0.00746
   D27        3.11938   0.00143  -0.00132   0.17606   0.17213  -2.99168
   D28        0.01906  -0.00144   0.00154  -0.17737  -0.17322  -0.15417
   D29       -0.01767   0.00145  -0.00122   0.17792   0.17410   0.15643
   D30       -3.11799  -0.00142   0.00165  -0.17552  -0.17125   2.99394
   D31        3.04770   0.00293   0.01590   0.31217   0.32730  -2.90819
   D32       -0.05108   0.00006   0.01887  -0.05401  -0.03438  -0.08546
         Item               Value     Threshold  Converged?
 Maximum Force            0.009532     0.000450     NO 
 RMS     Force            0.001504     0.000300     NO 
 Maximum Displacement     0.516052     0.001800     NO 
 RMS     Displacement     0.085299     0.001200     NO 
 Predicted change in Energy=-1.263027D-03
 GradGradGradGradGradGradGradGradGradGradGradGradGradGradGradGradGradGrad

                          Input orientation:                          
 ---------------------------------------------------------------------
 Center     Atomic      Atomic             Coordinates (Angstroms)
 Number     Number       Type             X           Y           Z
 ---------------------------------------------------------------------
      1          6           0        0.034377   -1.796051    0.024841
      2          6           0        1.259605   -1.104254   -0.015612
      3          6           0        1.249932    0.260576   -0.019155
      4          6           0       -0.017452    0.980452    0.016371
      5          6           0       -1.258814    0.221576    0.057378
      6          6           0       -1.225642   -1.141905    0.062913
      7          1           0        0.041245   -2.880073    0.029272
      8          1           0        2.187719   -1.659366   -0.042687
      9          1           0        2.154105    0.856429   -0.047818
     10          7           0        0.049416    2.267421    0.009771
     11          1           0       -2.210544    0.742564    0.084860
     12          1           0       -0.874925    2.714699    0.036511
     13          6           0       -2.535386   -1.891854    0.117736
     14          8           0       -3.584422   -1.331834   -0.002793
     15          8           0       -2.325252   -3.195830   -0.068341
     16          1           0       -3.172535   -3.642366   -0.243104
 ---------------------------------------------------------------------
                    Distance matrix (angstroms):
                    1          2          3          4          5
     1  C    0.000000
     2  C    1.407623   0.000000
     3  C    2.389398   1.364868   0.000000
     4  C    2.777000   2.444974   1.457994   0.000000
     5  C    2.396711   2.847032   2.510217   1.455525   0.000000
     6  C    1.420213   2.486772   2.846428   2.442599   1.363896
     7  H    1.084053   2.154054   3.365553   3.860993   3.363209
     8  H    2.158732   1.081794   2.136861   3.440190   3.927664
     9  H    3.396201   2.155330   1.083232   2.176043   3.473057
    10  N    4.063528   3.582372   2.338697   1.288721   2.428829
    11  H    3.389372   3.932272   3.495430   2.207019   1.085345
    12  H    4.601504   4.375310   3.246666   1.934756   2.522592
    13  C    2.573226   3.878150   4.356641   3.821048   2.469790
    14  O    3.648558   4.849387   5.089893   4.250919   2.797348
    15  O    2.745162   4.150743   4.973037   4.772258   3.582144
    16  H    3.710116   5.112497   5.902654   5.602885   4.322345
                    6          7          8          9         10
     6  C    0.000000
     7  H    2.151131   0.000000
     8  H    3.453976   2.470355   0.000000
     9  H    3.927887   4.293201   2.516025   0.000000
    10  N    3.640343   5.147537   4.471548   2.534548   0.000000
    11  H    2.126438   4.265811   5.013008   4.368150   2.727315
    12  H    3.872608   5.669295   5.340272   3.554618   1.027219
    13  C    1.510251   2.761056   4.731543   5.437995   4.898206
    14  O    2.367326   3.942529   5.781564   6.141760   5.114643
    15  O    2.333448   2.389464   4.767419   6.040353   5.957538
    16  H    3.183763   3.314160   5.718809   6.974983   6.735762
                   11         12         13         14         15
    11  H    0.000000
    12  H    2.382338   0.000000
    13  C    2.654573   4.897352   0.000000
    14  O    2.489649   4.870046   1.195252   0.000000
    15  O    3.943041   6.086772   1.333842   2.250397   0.000000
    16  H    4.501177   6.765314   1.897487   2.359229   0.973563
                   16
    16  H    0.000000
 Stoichiometry    C7H6NO2(1+)
 Framework group  C1[X(C7H6NO2)]
 Deg. of freedom    42
 Full point group                 C1      NOp   1
 Largest Abelian subgroup         C1      NOp   1
 Largest concise Abelian subgroup C1      NOp   1
                         Standard orientation:                         
 ---------------------------------------------------------------------
[...]

 ----------------------------------------------------------------------

 Dipole orientation:
     6          0.25955232         -3.37658947         -0.14176468
     6          0.16456982         -2.21823891          2.25125658
     6         -0.04609935          0.34734637          2.39856328
     6         -0.16980091          1.85188655          0.08875557
     6         -0.06479036          0.56940507         -2.34713032
     6          0.14595073         -1.99731168         -2.43740328
     1          0.42702825         -5.41470101         -0.25557100
     1          0.25943906         -3.37192667          3.93542989
     1         -0.12901161          1.35846526          4.17522886
     7         -0.36770107          4.26210641          0.36173057
     1         -0.15427275          1.65547820         -4.08331961
     1         -0.44581798          5.21125611         -1.32731364
     6          0.24900971         -3.25880767         -4.99260298
     8          0.15308654         -2.08529308         -6.92353592
     8          0.45390786         -5.76669925         -4.78077617
     1          0.51497671         -6.51419503         -6.45945722

 Electric dipole moment (dipole orientation):
 (Debye = 10**-18 statcoulomb cm , SI units = C m)
                  (au)            (Debye)         (10**-30 SI)
   Tot        0.138308D+01      0.351543D+01      0.117262D+02
   x          0.000000D+00      0.000000D+00      0.000000D+00
   y          0.000000D+00      0.000000D+00      0.000000D+00
   z          0.138308D+01      0.351543D+01      0.117262D+02

 Dipole polarizability, Alpha (dipole orientation).
 (esu units = cm**3 , SI units = C**2 m**2 J**-1)
 Alpha(0;0):
               (au)            (10**-24 esu)      (10**-40 SI)
   iso        0.907956D+02      0.134545D+02      0.149702D+02
   aniso      0.730982D+02      0.108320D+02      0.120523D+02
   xx         0.451403D+02      0.668910D+01      0.744263D+01
   yx        -0.639919D+01     -0.948262D+00     -0.105508D+01
   yy         0.122607D+03      0.181685D+02      0.202151D+02
   zx        -0.796421D+00     -0.118017D+00     -0.131312D+00
   zy         0.977369D+01      0.144831D+01      0.161146D+01
   zz         0.104640D+03      0.155060D+02      0.172527D+02

 ----------------------------------------------------------------------
 1\1\GINC-N11\Freq\RB3LYP\def2TZVP\C7H6N1O2(1+)\UNKNOWN\21-Jan-2025\0\\
 #N Geom=AllCheck Guess=TCheck SCRF=Check GenChk RB3LYP/def2TZVP Freq\\
 opt meta\\1,1\C,0.0365169464,-1.79310017,-0.0256098068\C,1.2621733979,
 -1.1005855049,-0.0186017672\C,1.2553380591,0.2635874796,0.0078813742\C
 ,-0.0142143631,0.9846916522,0.0285201103\C,-1.258414767,0.2250028697,0
 .0203926999\C,-1.2214198554,-1.1378910679,-0.0062107639\H,0.0436448181
 ,-2.87670292,-0.0467179613\H,2.1897242848,-1.656396099,-0.0342527991\H
 ,2.160324607,0.8578014572,0.0146545886\N,0.0504470086,2.2706847264,0.0
 53111256\H,-2.2112072568,0.7432820449,0.0355339762\H,-0.8729290091,2.7
 179660539,0.0666592588\C,-2.5293278468,-1.8903820119,-0.0137482272\O,-
 3.5878583644,-1.3322101365,0.002324053\O,-2.334720142,-3.2121285305,-0
 .0398360444\H,-3.1966529273,-3.6634345532,-0.0439580172\\Version=ES64L
 -G16RevA.03\State=1-A\HF=-475.4220981\RMSD=5.142e-09\RMSF=5.547e-06\Ze
 roPoint=0.1196557\Thermal=0.1279906\Dipole=1.380388,0.0860546,-0.00548
 04\DipoleDeriv=0.8754244,0.0910613,-0.0020919,-0.0135275,0.4552091,0.0
 060961,-0.0040889,0.0055869,0.1456966,-0.2837569,-0.4851518,-0.0083003
 ,-0.7870475,-0.6342162,-0.006695,-0.0141383,-0.0083353,-0.0751476,-0.0
 078427,-0.214188,-0.0037822,0.427565,0.6362043,0.0089139,0.0086665,0.0
 123047,0.0606588,0.0755353,0.0280201,0.0011356,-0.0151258,-0.5442737,-
 0.0141329,0.0002967,-0.0143549,0.1883916,-0.0548677,0.1087082,0.003078
 1,-0.2996043,0.5355082,0.009489,-0.0048556,0.0073328,0.1282128,-0.4332
 714,0.2522658,0.0072333,0.5379988,-0.6286802,-0.0151881,0.0127467,-0.0
 137262,0.0088574,0.1495175,0.0069055,-0.0000799,0.0055951,0.1565584,0.
 0008698,-0.0001295,0.0008989,0.1100793,0.0835342,-0.0039796,0.000266,-
 0.0073524,0.0940176,-0.0010217,0.0001869,-0.0010579,0.148654,0.1441192
 ,0.0282347,0.0004841,0.0186841,0.1077722,-0.0005675,0.0002898,-0.00061
 12,0.131898,-0.0414941,0.0096847,-0.0010607,0.017935,0.1284915,0.00780
 49,-0.0009045,0.0078406,-0.2787149,0.1625325,0.0055699,-0.00007,-0.000
 0554,0.1008848,-0.000552,-0.0001516,-0.0005689,0.1292297,0.0878037,-0.
 0048167,0.0008436,-0.0399377,0.4300309,0.0033992,0.0001644,0.0032215,0
 .2654791,1.4807816,0.212204,-0.001874,0.1721996,1.7450911,0.0262748,-0
 .0027495,0.026059,0.3135474,-1.0402704,0.0644082,0.0049225,-0.0356116,
 -0.6819308,-0.006837,0.0030865,-0.0073627,-0.3113614,-0.4752383,-0.201
 2555,-0.0030522,-0.0829312,-1.3472741,-0.019079,-0.0007284,-0.0184056,
 -0.3203533,0.2774932,0.1023291,0.002348,0.1012158,0.4466071,0.0012253,
 0.0023089,0.0011783,0.3548725\Polar=103.4931607,8.5879165,124.2486777,
 -0.144213,1.4940673,44.6448831\Quadrupole=1.1685805,7.886706,-9.055286
 5,2.2116766,-0.0137035,0.3160045\PG=C01 [X(C7H6N1O2)]\NImag=0\\0.62049
 350,0.01303292,0.71127196,-0.00213189,0.01046300,0.16975665,-0.2704555
 6,-0.10031476,-0.00087735,0.69790930,-0.03914929,-0.16958983,-0.001794
 70,-0.06497200,0.72813631,0.00030586,-0.00147255,-0.06668659,-0.004262
 04,0.01202199,0.12630293,0.00986187,-0.03953670,-0.00080326,-0.1264487
 9,0.00217444,0.00036789,0.64679742,-0.05518422,-0.02743551,-0.00029955
 ,0.03095318,-0.40917893,-0.00684144,0.07270135,0.75291944,-0.00110696,
 -0.00038351,0.00302143,0.00092518,-0.00668661,-0.06486623,-0.00118239,
 0.01124526,0.15333124,0.01383384,0.00020736,-0.00013436,0.00432738,0.0
 0116585,0.00005913,-0.22632186,0.04483947,0.00166784,0.56813248,-0.001
 59151,-0.00417284,0.00016631,0.02107066,-0.02775748,-0.00086237,0.0384
 6548,-0.09881503,-0.00068182,-0.00168181,0.78892919,-0.00016833,0.0001
 5574,-0.01228498,0.00044202,-0.00075798,0.01098822,0.00154598,-0.00071
 527,-0.07403933,-0.00222820,0.01234907,0.15247195,0.00501547,0.0400177
 4,0.00076989,-0.00488900,-0.01229944,-0.00022458,-0.04181129,-0.003036
 62,0.00021476,-0.22182466,-0.03937959,-0.00002143,0.65840014,0.0525334
 5,-0.02372880,-0.00080844,-0.01244881,-0.02651369,-0.00040869,0.000075
 34,0.02970081,0.00038384,-0.04310561,-0.10421399,-0.00020555,-0.063443
 10,0.73146622,0.00101231,-0.00074453,0.00364277,-0.00022616,-0.0004102
 3,-0.00202077,0.00027389,0.00040021,0.00992215,-0.00009206,-0.00022414
 ,-0.08189387,-0.00394612,0.01164271,0.14852894,-0.24672854,0.08459353,
 0.00258983,-0.04350382,-0.01035907,0.00007225,-0.00661665,0.01320163,0
 .00027340,0.00624098,-0.01948878,-0.00033311,-0.12020020,-0.01254220,0
 .00004814,0.60063737,0.03146186,-0.16144727,-0.00196378,0.00684497,0.0
 5625411,0.00089929,0.01410008,-0.02643400,-0.00052232,-0.00228959,-0.0
 3210835,-0.00089209,0.01150406,-0.40175232,-0.00658530,-0.01414423,0.7
 2357109,0.00156244,-0.00224367,-0.06896384,0.00040476,0.00098947,0.007
 94026,0.00029016,-0.00051753,-0.00335254,0.00000080,-0.00080301,0.0146
 6370,0.00051242,-0.00645784,-0.06515832,-0.00275924,0.01147701,0.13438
 474,-0.06097361,0.00304798,0.00009170,0.00507871,-0.02700684,-0.000475
 81,-0.00514115,-0.00320954,-0.00000068,-0.00019839,0.00005096,-0.00000
 103,-0.00581571,0.00262381,0.00010858,0.00437183,0.02744463,0.00057805
 ,0.06086685,0.00486152,-0.34410996,-0.00565488,0.00176023,-0.00647130,
 -0.00041373,-0.00188221,-0.00085372,-0.00013450,0.00014421,0.00145522,
 0.00003916,0.00166176,-0.00076846,-0.00012150,-0.00050554,-0.00803860,
 -0.00040333,-0.00335657,0.36000039,0.00012879,-0.00564496,-0.05475238,
 0.00008280,-0.00026243,0.01434192,0.00002430,-0.00012713,0.00656893,0.
 00000019,0.00003996,-0.00060304,0.00009131,-0.00012696,0.00501836,0.00
 003274,-0.00054969,0.01285491,-0.00024829,0.00651036,0.02617717,-0.019
 90860,0.01339806,0.00038226,-0.27037411,0.12702497,0.00366002,0.007022
 76,-0.00204297,-0.00004814,0.00052475,-0.00148309,0.00002144,0.0004779
 3,-0.00050898,-0.00001528,-0.00176335,-0.00366518,-0.00003212,0.000946
 75,0.00003018,-0.00002007,0.28249217,-0.01779833,0.01226154,0.00026629
 ,0.12743158,-0.13500106,-0.00246506,0.02922129,-0.01305092,-0.00051147
 ,-0.00298863,-0.00281027,-0.00023385,-0.00035904,-0.00082499,-0.000003
 48,-0.00326740,-0.00160956,-0.00012313,0.00026899,0.00076125,0.0000717
 4,-0.13342508,0.14040984,-0.00022223,0.00010286,0.00335664,0.00366781,
 -0.00246404,-0.04252989,0.00055812,-0.00034607,0.00538625,-0.00000797,
 -0.00024176,0.01005737,-0.00001240,-0.00000333,-0.00054813,-0.00002468
 ,-0.00012141,0.00564443,-0.00001568,0.00007330,-0.00301315,-0.00392411
 ,0.00288118,0.02809503,-0.00129979,0.00163516,0.00008789,0.00934998,0.
 00475896,0.00010545,-0.26305698,-0.13196345,-0.00141091,-0.01805465,-0
 .01529051,-0.00017737,-0.00240053,0.00417888,0.00010255,0.00105596,-0.
 00104205,-0.00003116,0.00026877,0.00022512,-0.00000982,0.00059206,-0.0
 0024113,-0.00003393,0.27139363,0.00046184,-0.00564254,-0.00029445,-0.0
 2517538,-0.00848078,-0.00026314,-0.13307887,-0.14421630,-0.00123882,0.
 01549403,0.01072294,0.00003718,0.00347510,-0.00217645,-0.00009349,0.00
 044966,-0.00050561,0.00000798,-0.00116818,-0.00024542,0.00004891,0.000
 08112,0.00104549,0.00011678,0.13995704,0.14690189,0.00006580,-0.000299
 92,0.00940737,-0.00047420,-0.00042221,0.01190757,-0.00143322,-0.001244
 01,-0.04430768,0.00041865,0.00019832,0.00461150,0.00008885,-0.00009657
 ,0.00170007,-0.00000214,0.00001601,-0.00103272,-0.00003691,0.00004178,
 -0.00245511,-0.00002779,0.00011863,-0.00499626,0.00142355,0.00161883,0
 .02554502,-0.01581497,-0.00040641,0.00007996,-0.00002334,0.01528136,0.
 00032631,0.00792326,0.03403457,0.00055831,-0.10951541,0.02049640,0.000
 75938,0.00348632,-0.03458503,-0.00052189,-0.00271166,-0.01225182,-0.00
 024266,-0.00002484,-0.00016747,-0.00000515,0.00043839,0.00157623,0.000
 03079,0.00218903,-0.00059329,-0.00003039,0.44970877,0.00171110,0.00388
 556,0.00005072,0.00841986,0.00031531,-0.00015062,0.02275958,-0.0533554
 9,-0.00093587,-0.04149921,-0.51238062,-0.00892015,-0.01853219,-0.05298
 192,-0.00154197,-0.01027319,0.00443205,0.00021231,-0.00005449,-0.00051
 934,-0.00000162,-0.00020526,-0.00159806,-0.00003826,-0.00149390,0.0018
 0018,0.00007122,-0.12764630,0.70739686,0.00012147,0.00006188,0.0007940
 5,0.00019318,-0.00018731,0.00581430,0.00034023,-0.00099476,-0.01127523
 ,-0.00044180,-0.00924756,-0.04115423,-0.00021042,-0.00145756,0.0315854
 1,-0.00020530,0.00022245,-0.00370715,-0.00000317,-0.00000096,-0.000421
 83,-0.00000396,-0.00004761,0.00043069,-0.00004808,0.00006646,-0.001468
 70,-0.00454205,0.01325843,0.05851329,-0.00210083,-0.00126438,0.0000325
 8,0.00097337,0.00157696,0.00002200,-0.00136472,-0.00420334,-0.00006310
 ,-0.01528847,0.01292660,0.00035134,-0.27457988,0.12204502,0.00359950,0
 .00695301,-0.00078082,0.00001120,0.00037460,-0.00017095,-0.00001756,-0
 .00001433,0.00008129,-0.00000225,-0.00059921,0.00059400,0.00002533,0.0
 0223021,0.00057612,-0.00001431,0.28462370,-0.00169723,-0.00622551,-0.0
 0027835,0.00012369,0.00030646,0.00001764,-0.00340392,-0.00277269,-0.00
 007619,-0.01632164,0.01035941,0.00021786,0.11886135,-0.12468477,-0.002
 20106,0.02840827,-0.00911151,-0.00055816,0.00148287,-0.00027263,0.0000
 3077,0.00006068,0.00007510,0.00001532,-0.00070911,0.00069587,-0.000021
 73,0.00011719,0.00261962,0.00009959,-0.12898636,0.12778907,0.00002282,
 -0.00027985,0.00858759,-0.00000597,0.00001061,-0.00063232,-0.00004738,
 -0.00007203,0.00208251,-0.00021584,0.00006149,0.00361140,0.00353913,-0
 .00221870,-0.04393714,0.00057872,-0.00040355,0.01186367,0.00001451,0.0
 0003983,-0.00227275,-0.00000256,0.00001522,-0.00073141,-0.00000007,-0.
 00002859,0.00200158,-0.00002340,0.00009715,-0.00254671,-0.00388516,0.0
 0266883,0.02569962,0.00008625,0.00043619,0.00000960,-0.00131792,-0.001
 04751,-0.00003370,-0.00036654,0.00347571,0.00016528,-0.00164007,-0.017
 45759,-0.00030670,0.00515278,-0.00166639,-0.00013240,0.00047399,-0.001
 16640,-0.00001149,0.00000100,0.00008982,0.00000364,0.00007278,0.000122
 05,-0.00000482,0.00059641,-0.00036707,-0.00001208,-0.33912658,0.166280
 01,0.00483331,-0.00001199,0.00044557,0.00001481,0.33597491,0.00145506,
 0.00006213,-0.00001221,0.00173766,-0.00056611,0.00005415,-0.00187458,-
 0.00493012,-0.00043796,0.04334288,-0.02653574,-0.00082750,0.00118175,0
 .00144782,0.00028908,-0.00067846,0.00199653,-0.00000781,-0.00008391,-0
 .00005713,-0.00000733,-0.00010047,-0.00037377,0.00001823,0.00021434,0.
 00005001,0.00000664,0.10589864,-0.09764710,-0.00178793,-0.00164778,-0.
 00041070,-0.00002141,-0.14923694,0.12676111,0.00002861,-0.00000663,0.0
 0029022,0.00002144,0.00006900,-0.00382031,0.00006095,-0.00046657,0.018
 15308,0.00087153,-0.00050629,0.00433935,-0.00007729,0.00030450,-0.0137
 8286,-0.00000147,-0.00000549,0.00258963,0.00000017,-0.00000822,0.00034
 075,-0.00000917,0.00001702,-0.00128645,-0.00000087,0.00000975,-0.00035
 083,0.00366313,-0.00210671,-0.03433976,-0.00002573,-0.00003257,0.00114
 762,-0.00453047,0.00274301,0.02599818,-0.02544542,-0.00642839,0.000021
 21,0.00254374,0.00466568,0.00010553,0.00017358,-0.00149660,-0.00003404
 ,-0.00311676,0.00719279,0.00022020,0.00744916,-0.02114261,-0.00041526,
 -0.13848687,-0.02888279,-0.00026194,0.00092334,0.00021035,-0.00001401,
 0.00004766,-0.00003971,0.00000089,-0.00029862,-0.00002125,-0.00000280,
 0.00284941,0.00023012,-0.00002672,0.00118866,0.00375524,0.00003741,0.0
 0055254,-0.00106489,-0.00001786,0.88818145,0.00519795,0.02413962,0.000
 39618,0.00735307,-0.00070676,-0.00015495,0.00203129,-0.00223955,-0.000
 03958,0.00230331,-0.00461892,-0.00033086,-0.03080361,-0.01747967,-0.00
 029148,-0.04142726,-0.12486585,-0.00058022,0.00370972,-0.00024630,0.00
 002288,0.00127461,0.00121186,0.00001026,-0.00022984,-0.00039420,0.0000
 0750,-0.00099828,-0.00100738,0.00004362,-0.00142099,-0.00169581,0.0000
 7544,-0.00028024,-0.00054792,-0.00002944,-0.18317727,0.69308185,0.0002
 4795,0.00045937,0.00215633,0.00015631,-0.00014029,0.00524376,0.0000337
 0,-0.00002112,-0.00076763,0.00012452,-0.00035673,0.01185395,-0.0006059
 3,-0.00034726,0.00609826,-0.00049437,-0.00064436,-0.08353720,0.0000529
 2,0.00004131,-0.00242047,0.00002621,0.00001693,0.00035097,-0.00000662,
 0.00000652,-0.00071677,-0.00005071,0.00003698,-0.00299677,-0.00006118,
 0.00004990,-0.00522768,-0.00000270,-0.00002514,0.00105143,-0.00703197,
 0.01028161,0.20253994,-0.00327864,-0.00792105,-0.00012657,-0.00369459,
 -0.00046395,0.00000242,-0.00044636,0.00179231,0.00003773,0.00130951,-0
 .00147855,-0.00004077,-0.00193622,0.00753090,0.00015510,-0.06220593,0.
 01017876,0.00062068,0.00071662,-0.00007116,-0.00000208,-0.00059159,-0.
 00058927,-0.00000962,0.00018792,-0.00002563,-0.00000076,-0.00068126,0.
 00016087,0.00000766,-0.00171173,-0.00135384,-0.00001868,-0.00029775,0.
 00054882,0.00001178,-0.62036185,0.25191408,0.00760482,0.70325849,0.000
 60935,-0.00379243,-0.00011214,-0.00119867,-0.00019934,0.00003660,-0.00
 116774,0.00032315,0.00001000,-0.00068361,0.00270014,0.00007731,-0.0021
 1272,-0.00647414,-0.00011316,-0.00428749,0.02012076,0.00001743,-0.0012
 6249,-0.00009710,-0.00000940,-0.00017752,-0.00022541,0.00000101,-0.000
 04718,0.00023059,0.00000183,0.00026729,-0.00018046,-0.00000892,-0.0005
 5816,0.00207250,0.00004757,0.00022228,0.00025300,0.00000538,0.25184119
 ,-0.23850243,-0.00441211,-0.31893042,0.27582097,0.00003869,-0.00006756
 ,0.00182759,-0.00001342,0.00003220,-0.00172949,-0.00001922,-0.00000525
 ,0.00012924,-0.00002637,0.00008099,-0.00110534,-0.00003012,-0.00016052
 ,-0.00011149,0.00034344,-0.00005899,0.02046319,-0.00002362,-0.00001565
 ,0.00073528,-0.00000158,0.00000307,-0.00022863,-0.00000114,0.00000173,
 0.00014594,0.00001003,-0.00000828,0.00021266,-0.00000233,0.00005169,-0
 .00022722,0.00000537,0.00000368,-0.00008735,0.00760526,-0.00441236,-0.
 07496555,-0.00952874,0.00628762,0.03178342,-0.00309114,-0.00057306,0.0
 0000593,0.00035092,-0.00149263,-0.00003262,-0.00024844,0.00026081,0.00
 000614,0.00163103,-0.00253981,-0.00006206,-0.00683949,0.00042143,0.000
 04897,0.00172557,-0.03919885,-0.00070430,-0.00164124,-0.00266702,-0.00
 004198,0.00003941,0.00000352,-0.00000025,0.00008667,-0.00006351,-0.000
 00150,-0.00102262,-0.00042767,-0.00000145,-0.00070124,-0.00070184,-0.0
 0000828,-0.00016006,0.00039653,0.00000778,-0.12729436,-0.01008381,0.00
 014807,-0.00510996,0.07315215,0.00156253,0.53591709,0.00318998,-0.0054
 3131,-0.00011748,-0.00170471,-0.00132148,-0.00001188,-0.00090462,0.000
 58565,0.00001683,0.00086533,-0.00059307,-0.00000802,-0.00531011,-0.000
 58943,0.00000246,-0.01166916,-0.03483102,-0.00077954,-0.00183817,-0.00
 094588,-0.00000710,-0.00025796,-0.00030440,-0.00000395,0.00008918,0.00
 020425,0.00000307,-0.00092676,-0.00057115,-0.00000900,0.00131816,0.001
 46933,0.00001828,0.00014792,0.00059595,0.00001251,0.02417240,-0.292028
 64,-0.00448765,0.05563862,-0.06089010,-0.00198684,0.12796281,0.5201726
 0,0.00007633,-0.00009832,-0.00017007,-0.00003570,-0.00001198,-0.000243
 09,-0.00001591,0.00001033,-0.00003118,0.00000517,0.00001174,-0.0004956
 2,-0.00006095,-0.00002855,0.00077453,-0.00018271,-0.00063772,0.0094498
 6,-0.00002654,-0.00000238,-0.00006424,-0.00000533,-0.00000527,-0.00003
 042,0.00000133,0.00000381,0.00002117,-0.00001132,-0.00001199,0.0001728
 3,0.00002971,0.00002684,0.00023476,0.00000313,0.00001116,-0.00010114,0
 .00079759,-0.00431018,-0.06223828,0.00123019,-0.00207731,0.02855000,-0
 .00012568,0.00843170,0.04134576,-0.00019382,0.00007580,0.00000259,0.00
 017374,0.00014250,0.00000190,0.00004390,-0.00012229,-0.00000243,-0.000
 03969,0.00018835,-0.00000137,0.00031519,0.00003391,0.00000011,0.000758
 31,0.00188738,0.00006242,0.00024648,-0.00016226,-0.00000484,-0.0000026
 6,0.00000364,0.00000033,-0.00001064,-0.00001961,-0.00000039,0.00009530
 ,-0.00000545,0.00000143,0.00002885,-0.00008094,-0.00000005,0.00001025,
 -0.00008865,-0.00000254,0.01109435,-0.00536273,-0.00014103,-0.00515667
 ,0.00433372,0.00008123,-0.39364214,-0.19077291,-0.00167932,0.38627926,
 0.00090553,-0.00004481,-0.00000654,0.00011945,0.00077455,0.00001476,0.
 00031979,-0.00024681,-0.00000729,0.00020766,-0.00016059,0.00001497,-0.
 00142535,-0.00042622,-0.00000411,0.00198968,-0.00567044,-0.00022996,-0
 .00064877,0.00040897,0.00001202,-0.00000311,0.00003338,-0.00000015,-0.
 00004152,0.00001007,0.00000062,-0.00009632,-0.00020805,-0.00001081,-0.
 00008538,-0.00021374,-0.00001029,0.00000260,-0.00009795,0.00000075,-0.
 04981426,-0.03409990,-0.00045794,0.00306950,0.00884033,0.00025447,-0.1
 4444903,-0.12552129,-0.00131186,0.18994954,0.15662250,0.00001835,-0.00
 000135,0.00001722,0.00000134,0.00001451,-0.00001027,0.00000617,-0.0000
 0505,0.00004499,-0.00000125,0.00001579,-0.00102103,-0.00002713,-0.0000
 1109,0.00018209,0.00006450,-0.00023006,0.00589739,-0.00001418,0.000009
 42,-0.00003435,0.00000018,-0.00000021,0.00004296,-0.00000081,0.0000005
 4,-0.00001216,-0.00000034,-0.00001132,0.00038715,-0.00000005,-0.000010
 38,0.00034646,-0.00000078,0.00000137,-0.00014157,-0.00098349,-0.000688
 43,0.00357570,0.00005683,0.00024830,-0.00539225,-0.00080130,-0.0010733
 9,-0.01717489,0.00168193,0.00174135,0.01329257\\0.00001301,-0.00000154
 ,-0.00000333,-0.00001130,-0.00000890,0.00000309,0.00000308,0.00001675,
 0.00000154,-0.00000462,-0.00000749,-0.00000391,-0.00000270,-0.00001191
 ,-0.00000110,-0.00001083,0.00000824,-0.00000264,-0.00000138,-0.0000002
 9,-0.00000179,-0.00000033,0.00000105,0.00000058,-0.00000037,-0.0000028
 5,0.00000051,0.00000493,0.00000324,0.00000026,0.00000214,0.00000340,0.
 00000257,-0.00000099,-0.00000289,0.00000058,-0.00000492,-0.00000712,0.
 00000344,0.00000622,0.00000772,-0.00000190,0.00000752,0.00000385,0.000
 00237,0.00000052,-0.00000126,-0.00000028\\\@


 DO NOT LET SELFISH MEN OR GREEDY INTERESTS SKIN YOUR COUNTRY OF ITS
 BEAUTY, ITS RICHES, OR ITS ROMANCE. -- THEODORE ROOSEVELT
 Job cpu time:       0 days  0 hours 23 minutes 38.1 seconds.
 Elapsed time:       0 days  0 hours 23 minutes 40.1 seconds.
 File lengths (MBytes):  RWF=    171 Int=      0 D2E=      0 Chk=     11 Scr=      1
 Normal termination of Gaussian 16 at Tue Jan 21 11:30:22 2025.
