 Entering Gaussian System, Link 0=g16
 Initial command:
 /sw/cluster/pub/apps//g16/l1.exe "/data/mmaximo/28014/Gau-9776.inp" -scrdir="/data/mmaximo/28014/"
 Entering Link 1 = /sw/cluster/pub/apps//g16/l1.exe PID=      9777.
  
 Copyright (c) 1988,1990,1992,1993,1995,1998,2003,2009,2016,
            Gaussian, Inc.  All Rights Reserved.
  
 This is part of the Gaussian(R) 16 program.  It is based on
 the Gaussian(R) 09 system (copyright 2009, Gaussian, Inc.),
 the Gaussian(R) 03 system (copyright 2003, Gaussian, Inc.),
 the Gaussian(R) 98 system (copyright 1998, Gaussian, Inc.),
 the Gaussian(R) 94 system (copyright 1995, Gaussian, Inc.),
 the Gaussian 92(TM) system (copyright 1992, Gaussian, Inc.),
 the Gaussian 90(TM) system (copyright 1990, Gaussian, Inc.),
 the Gaussian 88(TM) system (copyright 1988, Gaussian, Inc.),
 the Gaussian 86(TM) system (copyright 1986, Carnegie Mellon
 University), and the Gaussian 82(TM) system (copyright 1983,
 Carnegie Mellon University). Gaussian is a federally registered
 trademark of Gaussian, Inc.
  
 This software contains proprietary and confidential information,
 including trade secrets, belonging to Gaussian, Inc.
  
 This software is provided under written license and may be
 used, copied, transmitted, or stored only in accord with that
 written license.
  
 The following legend is applicable only to US Government
 contracts under FAR:
  
                    RESTRICTED RIGHTS LEGEND
  
 Use, reproduction and disclosure by the US Government is
 subject to restrictions as set forth in subparagraphs (a)
 and (c) of the Commercial Computer Software - Restricted
 Rights clause in FAR 52.227-19.
  
 Gaussian, Inc.
 340 Quinnipiac St., Bldg. 40, Wallingford CT 06492
  
  
 ---------------------------------------------------------------
 Warning -- This program may not be used in any manner that
 competes with the business of Gaussian, Inc. or will provide
 assistance to any competitor of Gaussian, Inc.  The licensee
 of this program is prohibited from giving any competitor of
 Gaussian, Inc. access to this program.  By using this program,
 the user acknowledges that Gaussian, Inc. is engaged in the
 business of creating and licensing software in the field of
 computational chemistry and represents and warrants to the
 licensee that it is not a competitor of Gaussian, Inc. and that
 it will not use this program in any manner prohibited above.
 ---------------------------------------------------------------
  

 Cite this work as:
 Gaussian 16, Revision A.03,
 M. J. Frisch, G. W. Trucks, H. B. Schlegel, G. E. Scuseria, 
 M. A. Robb, J. R. Cheeseman, G. Scalmani, V. Barone, 
 G. A. Petersson, H. Nakatsuji, X. Li, M. Caricato, A. V. Marenich, 
 J. Bloino, B. G. Janesko, R. Gomperts, B. Mennucci, H. P. Hratchian, 
 J. V. Ortiz, A. F. Izmaylov, J. L. Sonnenberg, D. Williams-Young, 
 F. Ding, F. Lipparini, F. Egidi, J. Goings, B. Peng, A. Petrone, 
 T. Henderson, D. Ranasinghe, V. G. Zakrzewski, J. Gao, N. Rega, 
 G. Zheng, W. Liang, M. Hada, M. Ehara, K. Toyota, R. Fukuda, 
 J. Hasegawa, M. Ishida, T. Nakajima, Y. Honda, O. Kitao, H. Nakai, 
 T. Vreven, K. Throssell, J. A. Montgomery, Jr., J. E. Peralta, 
 F. Ogliaro, M. J. Bearpark, J. J. Heyd, E. N. Brothers, K. N. Kudin, 
 V. N. Staroverov, T. A. Keith, R. Kobayashi, J. Normand, 
 K. Raghavachari, A. P. Rendell, J. C. Burant, S. S. Iyengar, 
 J. Tomasi, M. Cossi, J. M. Millam, M. Klene, C. Adamo, R. Cammi, 
 J. W. Ochterski, R. L. Martin, K. Morokuma, O. Farkas, 
 J. B. Foresman, and D. J. Fox, Gaussian, Inc., Wallingford CT, 2016.
 
 ******************************************
 Gaussian 16:  ES64L-G16RevA.03 25-Dec-2016
                20-Jan-2025 
 ******************************************
 %chk=C6H5NH+.chk
 -------------------------
 # opt freq b3lyp def2tzvp
 -------------------------
 1/18=20,19=15,26=3,38=1/1,3;
 2/9=110,12=2,17=6,18=5,40=1/2;
 3/5=44,7=101,11=2,25=1,30=1,71=1,74=-5/1,2,3;
 4//1;
 5/5=2,38=5/2;
 6/7=2,8=2,9=2,10=2,28=1/1;
 7//1,2,3,16;
 1/18=20,19=15,26=3/3(2);
 2/9=110/2;
 99//99;
 2/9=110/2;
 3/5=44,7=101,11=2,25=1,30=1,71=1,74=-5/1,2,3;
 4/5=5,16=3,69=1/1;
 5/5=2,38=5/2;
 7//1,2,3,16;
 1/18=20,19=15,26=3/3(-5);
 2/9=110/2;
 6/7=2,8=2,9=2,10=2,19=2,28=1/1;
 99/9=1/99;
 ---
 opt
 ---
 Symbolic Z-matrix:
 Charge =  1 Multiplicity = 1
 C                    -0.01265  -1.76457   0.053 
 C                     1.2365   -1.09917   0.01832 
 C                     1.31303   0.25392  -0.02513 
 C                     0.01898   1.06268  -0.03637 
 C                    -1.29282   0.28395   0.00257 
 C                    -1.24659  -1.07055   0.04471 
 H                     2.13804  -1.67541   0.02655 
 H                     2.26309   0.74545  -0.05105 
 N                     0.03345   2.35555  -0.07725 
 H                    -2.23165   0.79724  -0.00327 
 H                    -2.16079  -1.62587   0.07225 
 H                    -0.82688   2.86525  -0.08384 
 C                    -0.02987  -3.3037    0.10166 
 O                     1.05277  -3.94511   0.10996 
 O                    -1.27613  -4.00403   0.13742 
 H                    -1.1757   -4.85795  -0.28959 
 

 GradGradGradGradGradGradGradGradGradGradGradGradGradGradGradGradGradGrad
 Berny optimization.
 Initialization pass.
                           ----------------------------
                           !    Initial Parameters    !
                           ! (Angstroms and Degrees)  !
 --------------------------                            --------------------------
 ! Name  Definition              Value          Derivative Info.                !
 --------------------------------------------------------------------------------
 ! R1    R(1,2)                  1.4157         estimate D2E/DX2                !
 ! R2    R(1,6)                  1.4157         estimate D2E/DX2                !
 ! R3    R(1,13)                 1.54           estimate D2E/DX2                !
 ! R4    R(2,3)                  1.3559         estimate D2E/DX2                !
 ! R5    R(2,7)                  1.07           estimate D2E/DX2                !
 ! R6    R(3,4)                  1.526          estimate D2E/DX2                !
 ! R7    R(3,8)                  1.07           estimate D2E/DX2                !
 ! R8    R(4,5)                  1.526          estimate D2E/DX2                !
 ! R9    R(4,9)                  1.2936         estimate D2E/DX2                !
 ! R10   R(5,6)                  1.3559         estimate D2E/DX2                !
 ! R11   R(5,10)                 1.07           estimate D2E/DX2                !
 ! R12   R(6,11)                 1.07           estimate D2E/DX2                !
 ! R13   R(9,12)                 1.0            estimate D2E/DX2                !
 ! R14   R(13,14)                1.2584         estimate D2E/DX2                !
 ! R15   R(13,15)                1.43           estimate D2E/DX2                !
 ! R16   R(15,16)                0.96           estimate D2E/DX2                !
 ! A1    A(2,1,6)              122.5798         estimate D2E/DX2                !
 ! A2    A(2,1,13)             118.7101         estimate D2E/DX2                !
 ! A3    A(6,1,13)             118.7101         estimate D2E/DX2                !
 ! A4    A(1,2,3)              121.3051         estimate D2E/DX2                !
 ! A5    A(1,2,7)              119.3475         estimate D2E/DX2                !
 ! A6    A(3,2,7)              119.3475         estimate D2E/DX2                !
 ! A7    A(2,3,4)              118.7662         estimate D2E/DX2                !
 ! A8    A(2,3,8)              120.6169         estimate D2E/DX2                !
 ! A9    A(4,3,8)              120.6169         estimate D2E/DX2                !
 ! A10   A(3,4,5)              117.2777         estimate D2E/DX2                !
 ! A11   A(3,4,9)              121.3612         estimate D2E/DX2                !
 ! A12   A(5,4,9)              121.3612         estimate D2E/DX2                !
 ! A13   A(4,5,6)              118.7662         estimate D2E/DX2                !
 ! A14   A(4,5,10)             120.6169         estimate D2E/DX2                !
 ! A15   A(6,5,10)             120.6169         estimate D2E/DX2                !
 ! A16   A(1,6,5)              121.3051         estimate D2E/DX2                !
 ! A17   A(1,6,11)             119.3475         estimate D2E/DX2                !
 ! A18   A(5,6,11)             119.3475         estimate D2E/DX2                !
 ! A19   A(4,9,12)             120.0            estimate D2E/DX2                !
 ! A20   A(1,13,14)            120.0            estimate D2E/DX2                !
 ! A21   A(1,13,15)            120.0            estimate D2E/DX2                !
 ! A22   A(14,13,15)           120.0            estimate D2E/DX2                !
 ! A23   A(13,15,16)           109.4712         estimate D2E/DX2                !
 ! D1    D(6,1,2,3)              0.0002         estimate D2E/DX2                !
 ! D2    D(6,1,2,7)           -179.9999         estimate D2E/DX2                !
 ! D3    D(13,1,2,3)          -179.9998         estimate D2E/DX2                !
 ! D4    D(13,1,2,7)             0.0            estimate D2E/DX2                !
 ! D5    D(2,1,6,5)             -0.0003         estimate D2E/DX2                !
 ! D6    D(2,1,6,11)           179.9999         estimate D2E/DX2                !
 ! D7    D(13,1,6,5)           179.9998         estimate D2E/DX2                !
 ! D8    D(13,1,6,11)            0.0            estimate D2E/DX2                !
 ! D9    D(2,1,13,14)           -0.0001         estimate D2E/DX2                !
 ! D10   D(2,1,13,15)          179.9999         estimate D2E/DX2                !
 ! D11   D(6,1,13,14)          179.9999         estimate D2E/DX2                !
 ! D12   D(6,1,13,15)           -0.0002         estimate D2E/DX2                !
 ! D13   D(1,2,3,4)             -0.0001         estimate D2E/DX2                !
 ! D14   D(1,2,3,8)            179.9999         estimate D2E/DX2                !
 ! D15   D(7,2,3,4)           -179.9999         estimate D2E/DX2                !
 ! D16   D(7,2,3,8)              0.0001         estimate D2E/DX2                !
 ! D17   D(2,3,4,5)             -0.0001         estimate D2E/DX2                !
 ! D18   D(2,3,4,9)           -179.9999         estimate D2E/DX2                !
 ! D19   D(8,3,4,5)            179.9999         estimate D2E/DX2                !
 ! D20   D(8,3,4,9)              0.0001         estimate D2E/DX2                !
 ! D21   D(3,4,5,6)              0.0001         estimate D2E/DX2                !
 ! D22   D(3,4,5,10)           179.9999         estimate D2E/DX2                !
 ! D23   D(9,4,5,6)            179.9999         estimate D2E/DX2                !
 ! D24   D(9,4,5,10)            -0.0003         estimate D2E/DX2                !
 ! D25   D(3,4,9,12)           179.9999         estimate D2E/DX2                !
 ! D26   D(5,4,9,12)             0.0001         estimate D2E/DX2                !
 ! D27   D(4,5,6,1)              0.0001         estimate D2E/DX2                !
 ! D28   D(4,5,6,11)           179.9999         estimate D2E/DX2                !
 ! D29   D(10,5,6,1)          -179.9998         estimate D2E/DX2                !
 ! D30   D(10,5,6,11)            0.0001         estimate D2E/DX2                !
 ! D31   D(1,13,15,16)         150.0            estimate D2E/DX2                !
 ! D32   D(14,13,15,16)        -30.0            estimate D2E/DX2                !
 --------------------------------------------------------------------------------
 Trust Radius=3.00D-01 FncErr=1.00D-07 GrdErr=1.00D-06 EigMax=2.50D+02 EigMin=1.00D-04
 Number of steps in this run=     81 maximum allowed number of steps=    100.
 GradGradGradGradGradGradGradGradGradGradGradGradGradGradGradGradGradGrad

                          Input orientation:                          
 ---------------------------------------------------------------------
 Center     Atomic      Atomic             Coordinates (Angstroms)
 Number     Number       Type             X           Y           Z
 ---------------------------------------------------------------------
      1          6           0       -0.012648   -1.764569    0.053005
      2          6           0        1.236500   -1.099165    0.018318
      3          6           0        1.313028    0.253917   -0.025132
      4          6           0        0.018983    1.062680   -0.036373
      5          6           0       -1.292823    0.283946    0.002568
      6          6           0       -1.246587   -1.070550    0.044712
      7          1           0        2.138039   -1.675411    0.026554
      8          1           0        2.263094    0.745447   -0.051054
      9          7           0        0.033447    2.355553   -0.077246
     10          1           0       -2.231647    0.797244   -0.003274
     11          1           0       -2.160786   -1.625871    0.072249
     12          1           0       -0.826881    2.865251   -0.083839
     13          6           0       -0.029868   -3.303704    0.101664
     14          8           0        1.052769   -3.945108    0.109961
     15          8           0       -1.276127   -4.004032    0.137421
     16          1           0       -1.175703   -4.857950   -0.289591
 ---------------------------------------------------------------------
                    Distance matrix (angstroms):
                    1          2          3          4          5
     1  C    0.000000
     2  C    1.415746   0.000000
     3  C    2.416155   1.355941   0.000000
     4  C    2.828839   2.481716   1.526033   0.000000
     5  C    2.416155   2.882831   2.606171   1.526033   0.000000
     6  C    1.415746   2.483391   2.882831   2.481716   1.355941
     7  H    2.152697   1.070000   2.098956   3.462875   3.951008
     8  H    3.389692   2.112180   1.070000   2.266470   3.586141
     9  N    4.122439   3.659446   2.461081   1.293600   2.461081
    10  H    3.389692   3.952831   3.586141   2.266470   1.070000
    11  H    2.152697   3.438296   3.951008   3.462875   2.098956
    12  H    4.702865   4.470411   3.376644   1.991733   2.624444
    13  C    1.540000   2.543742   3.804748   4.368839   3.804748
    14  O    2.427572   2.853339   4.209251   5.115473   4.837172
    15  O    2.572683   3.842620   4.986008   5.232503   4.290131
    16  H    3.322510   4.476828   5.691652   6.045267   5.151521
                    6          7          8          9         10
     6  C    0.000000
     7  H    3.438296   0.000000
     8  H    3.952831   2.425327   0.000000
     9  N    3.659446   4.548489   2.750355   0.000000
    10  H    2.112180   5.020863   4.495294   2.750355   0.000000
    11  H    1.070000   4.299353   5.020863   4.548489   2.425327
    12  H    3.960204   5.424071   3.747345   1.000000   2.501302
    13  C    2.543742   2.712342   4.655816   5.662439   4.655816
    14  O    3.681627   2.517199   4.846866   6.385327   5.769759
    15  O    2.935095   4.134162   5.926142   6.496568   4.897455
    16  H    3.802786   4.605365   6.578775   7.317224   5.760054
                   11         12         13         14         15
    11  H    0.000000
    12  H    4.687627   0.000000
    13  C    2.712342   6.222994   0.000000
    14  O    3.963233   7.067647   1.258400   0.000000
    15  O    2.538212   6.887513   1.430000   2.329803   0.000000
    16  H    3.398183   7.733812   1.970203   2.441108   0.960000
                   16
    16  H    0.000000
 Stoichiometry    C7H6NO2(1+)
 Framework group  C1[X(C7H6NO2)]
 Deg. of freedom    42
 Full point group                 C1      NOp   1
 Largest Abelian subgroup         C1      NOp   1
 Largest concise Abelian subgroup C1      NOp   1
                         Standard orientation:                         
 ---------------------------------------------------------------------
 Center     Atomic      Atomic             Coordinates (Angstroms)
 Number     Number       Type             X           Y           Z
 ---------------------------------------------------------------------
      1          6           0       -0.570925    0.055458   -0.008902
      2          6           0        0.132159    1.284238    0.001483
      3          6           0        1.487601    1.320361    0.008426
      4          6           0        2.257389    0.002714    0.004869
      5          6           0        1.439081   -1.285316   -0.006418
      6          6           0        0.085925   -1.198682   -0.012662
      7          1           0       -0.416933    2.202602    0.003899
      8          1           0        2.007789    2.255370    0.016253
      9          7           0        3.550748   -0.021405    0.011167
     10          1           0        1.924099   -2.239071   -0.009353
     11          1           0       -0.496975   -2.095936   -0.020589
     12          1           0        4.034532   -0.896589    0.008668
     13          6           0       -2.110639    0.084172   -0.016402
     14          8           0       -2.719433    1.185503   -0.013257
     15          8           0       -2.848562   -1.140679   -0.026940
     16          1           0       -3.687343   -1.012807    0.422165
 ---------------------------------------------------------------------
 Rotational constants (GHZ):           3.5412059           0.7980147           0.6515879
 Standard basis: def2TZVP (5D, 7F)
 There are   396 symmetry adapted cartesian basis functions of A   symmetry.
 There are   346 symmetry adapted basis functions of A   symmetry.
   346 basis functions,   558 primitive gaussians,   396 cartesian basis functions
    35 alpha electrons       35 beta electrons
       nuclear repulsion energy       466.2992010597 Hartrees.
 NAtoms=   16 NActive=   16 NUniq=   16 SFac= 1.00D+00 NAtFMM=   60 NAOKFM=F Big=F
 Integral buffers will be    131072 words long.
 Raffenetti 2 integral format.
 Two-electron integral symmetry is turned on.
 One-electron integrals computed using PRISM.
   1 Symmetry operations used in ECPInt.
 ECPInt:  NShTT=    9045 NPrTT=   28204 LenC2=    8602 LenP2D=   20772.
 LDataN:  DoStor=T MaxTD1= 6 Len=  172
 NBasis=   346 RedAO= T EigKep=  1.16D-05  NBF=   346
 NBsUse=   346 1.00D-06 EigRej= -1.00D+00 NBFU=   346
 ExpMin= 9.52D-02 ExpMax= 2.70D+04 ExpMxC= 9.22D+02 IAcc=3 IRadAn=         5 AccDes= 0.00D+00
 Harris functional with IExCor=  402 and IRadAn=       5 diagonalized for initial guess.
 HarFok:  IExCor=  402 AccDes= 0.00D+00 IRadAn=         5 IDoV= 1 UseB2=F ITyADJ=14
 ICtDFT=  3500011 ScaDFX=  1.000000  1.000000  1.000000  1.000000
 FoFCou: FMM=F IPFlag=           0 FMFlag=      100000 FMFlg1=           0
         NFxFlg=           0 DoJE=T BraDBF=F KetDBF=T FulRan=T
         wScrn=  0.000000 ICntrl=       500 IOpCl=  0 I1Cent=   200000004 NGrid=           0
         NMat0=    1 NMatS0=      1 NMatT0=    0 NMatD0=    1 NMtDS0=    0 NMtDT0=    0
 Petite list used in FoFCou.
 Requested convergence on RMS density matrix=1.00D-08 within 128 cycles.
 Requested convergence on MAX density matrix=1.00D-06.
 Requested convergence on             energy=1.00D-06.
 No special actions if energy rises.
 Integral accuracy reduced to 1.0D-05 until final iterations.
 EnCoef did     2 forward-backward iterations
 EnCoef did     2 forward-backward iterations
 Initial convergence to 1.0D-05 achieved.  Increase integral accuracy.
 SCF Done:  E(RB3LYP) =  -475.389491884     A.U. after   19 cycles
            NFock= 19  Conv=0.47D-08     -V/T= 2.0059

 **********************************************************************

            Population analysis using the SCF density.

 **********************************************************************

 Orbital symmetries:
       Occupied  (A) (A) (A) (A) (A) (A) (A) (A) (A) (A) (A) (A)
                 (A) (A) (A) (A) (A) (A) (A) (A) (A) (A) (A) (A)
                 (A) (A) (A) (A) (A) (A) (A) (A) (A) (A) (A)
       Virtual   (A) (A) (A) (A) (A) (A) (A) (A) (A) (A) (A) (A)
                 (A) (A) (A) (A) (A) (A) (A) (A) (A) (A) (A) (A)
                 (A) (A) (A) (A) (A) (A) (A) (A) (A) (A) (A) (A)
                 (A) (A) (A) (A) (A) (A) (A) (A) (A) (A) (A) (A)
                 (A) (A) (A) (A) (A) (A) (A) (A) (A) (A) (A) (A)
                 (A) (A) (A) (A) (A) (A) (A) (A) (A) (A) (A) (A)
                 (A) (A) (A) (A) (A) (A) (A) (A) (A) (A) (A) (A)
                 (A) (A) (A) (A) (A) (A) (A) (A) (A) (A) (A) (A)
                 (A) (A) (A) (A) (A) (A) (A) (A) (A) (A) (A) (A)
                 (A) (A) (A) (A) (A) (A) (A) (A) (A) (A) (A) (A)
                 (A) (A) (A) (A) (A) (A) (A) (A) (A) (A) (A) (A)
                 (A) (A) (A) (A) (A) (A) (A) (A) (A) (A) (A) (A)
                 (A) (A) (A) (A) (A) (A) (A) (A) (A) (A) (A) (A)
                 (A) (A) (A) (A) (A) (A) (A) (A) (A) (A) (A) (A)
                 (A) (A) (A) (A) (A) (A) (A) (A) (A) (A) (A) (A)
                 (A) (A) (A) (A) (A) (A) (A) (A) (A) (A) (A) (A)
                 (A) (A) (A) (A) (A) (A) (A) (A) (A) (A) (A) (A)
                 (A) (A) (A) (A) (A) (A) (A) (A) (A) (A) (A) (A)
                 (A) (A) (A) (A) (A) (A) (A) (A) (A) (A) (A) (A)
                 (A) (A) (A) (A) (A) (A) (A) (A) (A) (A) (A) (A)
                 (A) (A) (A) (A) (A) (A) (A) (A) (A) (A) (A) (A)
                 (A) (A) (A) (A) (A) (A) (A) (A) (A) (A) (A) (A)
                 (A) (A) (A) (A) (A) (A) (A) (A) (A) (A) (A) (A)
                 (A) (A) (A) (A) (A) (A) (A) (A) (A) (A) (A) (A)
                 (A) (A) (A) (A) (A) (A) (A) (A) (A) (A) (A) (A)
                 (A) (A) (A) (A) (A) (A) (A) (A) (A) (A) (A)
 The electronic state is 1-A.
 Alpha  occ. eigenvalues --  -19.33799 -19.31119 -14.54829 -10.50902 -10.46303
 Alpha  occ. eigenvalues --  -10.45969 -10.42975 -10.42780 -10.40154 -10.40034
 Alpha  occ. eigenvalues --   -1.25094  -1.17712  -1.13442  -1.07127  -0.98853
 Alpha  occ. eigenvalues --   -0.94920  -0.84427  -0.82416  -0.79700  -0.74513
 Alpha  occ. eigenvalues --   -0.71367  -0.68906  -0.66065  -0.65614  -0.64943
 Alpha  occ. eigenvalues --   -0.62341  -0.61324  -0.59633  -0.57920  -0.56025
 Alpha  occ. eigenvalues --   -0.52981  -0.49578  -0.48957  -0.48043  -0.46213
 Alpha virt. eigenvalues --   -0.37106  -0.23730  -0.22598  -0.16683  -0.12190
 Alpha virt. eigenvalues --   -0.11237  -0.09357  -0.07838  -0.07177  -0.06303
 Alpha virt. eigenvalues --   -0.04285  -0.03044  -0.02750  -0.00766  -0.00437
 Alpha virt. eigenvalues --    0.01317   0.01880   0.03712   0.04137   0.05871
 Alpha virt. eigenvalues --    0.06071   0.06808   0.07545   0.08937   0.10745
 Alpha virt. eigenvalues --    0.12577   0.12763   0.13441   0.14105   0.14786
 Alpha virt. eigenvalues --    0.15852   0.16133   0.17086   0.20334   0.21683
 Alpha virt. eigenvalues --    0.22436   0.22854   0.23426   0.24538   0.25493
 Alpha virt. eigenvalues --    0.25743   0.28005   0.28384   0.29186   0.30611
 Alpha virt. eigenvalues --    0.31199   0.32362   0.33186   0.33545   0.34425
 Alpha virt. eigenvalues --    0.34777   0.39036   0.40334   0.41456   0.42226
 Alpha virt. eigenvalues --    0.43313   0.45402   0.46045   0.46202   0.47758
 Alpha virt. eigenvalues --    0.49601   0.50845   0.51209   0.52665   0.53088
 Alpha virt. eigenvalues --    0.55777   0.56296   0.58791   0.59843   0.61447
 Alpha virt. eigenvalues --    0.63669   0.65031   0.67923   0.68408   0.69273
 Alpha virt. eigenvalues --    0.69903   0.74395   0.76199   0.77958   0.78718
 Alpha virt. eigenvalues --    0.80936   0.81358   0.84308   0.88570   0.89272
 Alpha virt. eigenvalues --    0.90844   0.92000   0.96790   0.97016   0.98214
 Alpha virt. eigenvalues --    1.00837   1.02476   1.03179   1.06250   1.06834
 Alpha virt. eigenvalues --    1.09509   1.13737   1.14106   1.14653   1.17302
 Alpha virt. eigenvalues --    1.18720   1.21864   1.23326   1.27072   1.27783
 Alpha virt. eigenvalues --    1.28374   1.28600   1.30285   1.32372   1.32791
 Alpha virt. eigenvalues --    1.35594   1.37629   1.38184   1.39308   1.40221
 Alpha virt. eigenvalues --    1.41207   1.42803   1.43548   1.46226   1.48889
 Alpha virt. eigenvalues --    1.51532   1.52606   1.56572   1.60448   1.61022
 Alpha virt. eigenvalues --    1.62432   1.67588   1.68160   1.68326   1.69813
 Alpha virt. eigenvalues --    1.72667   1.74271   1.76411   1.78950   1.80100
 Alpha virt. eigenvalues --    1.82310   1.83278   1.85597   1.87935   1.88788
 Alpha virt. eigenvalues --    1.90913   1.93065   1.97403   1.98475   2.00561
 Alpha virt. eigenvalues --    2.01312   2.02934   2.05249   2.07715   2.09228
 Alpha virt. eigenvalues --    2.14211   2.14909   2.16174   2.20298   2.23061
 Alpha virt. eigenvalues --    2.25864   2.32782   2.33040   2.33759   2.34338
 Alpha virt. eigenvalues --    2.36622   2.38591   2.40020   2.41290   2.41908
 Alpha virt. eigenvalues --    2.45321   2.46271   2.47186   2.49160   2.50261
 Alpha virt. eigenvalues --    2.52506   2.55661   2.56064   2.57047   2.58556
 Alpha virt. eigenvalues --    2.58820   2.59350   2.65500   2.66203   2.67255
 Alpha virt. eigenvalues --    2.70477   2.73004   2.73192   2.74717   2.75674
 Alpha virt. eigenvalues --    2.76109   2.77910   2.82450   2.85066   2.87071
 Alpha virt. eigenvalues --    2.88872   2.89648   2.90315   2.91423   2.92278
 Alpha virt. eigenvalues --    2.94486   2.95294   2.97221   2.98437   2.99142
 Alpha virt. eigenvalues --    3.02888   3.04417   3.04529   3.05706   3.05918
 Alpha virt. eigenvalues --    3.09108   3.10801   3.12786   3.13555   3.14510
 Alpha virt. eigenvalues --    3.15574   3.16109   3.17617   3.19272   3.21755
 Alpha virt. eigenvalues --    3.21973   3.22513   3.24678   3.25928   3.27327
 Alpha virt. eigenvalues --    3.31681   3.35839   3.36433   3.39383   3.43252
 Alpha virt. eigenvalues --    3.47949   3.50235   3.50635   3.52508   3.56161
 Alpha virt. eigenvalues --    3.60339   3.62816   3.66603   3.68387   3.72771
 Alpha virt. eigenvalues --    3.72991   3.74714   3.76373   3.78936   3.88187
 Alpha virt. eigenvalues --    3.88870   3.93303   3.95908   3.97494   3.98684
 Alpha virt. eigenvalues --    3.99347   4.00787   4.01827   4.10692   4.18156
 Alpha virt. eigenvalues --    4.21562   4.25250   4.27521   4.35373   4.36092
 Alpha virt. eigenvalues --    4.39839   4.41958   4.47762   4.49230   4.52435
 Alpha virt. eigenvalues --    4.59239   4.60580   4.61702   4.61833   4.67945
 Alpha virt. eigenvalues --    4.77746   4.86435   4.92686   4.96901   4.98893
 Alpha virt. eigenvalues --    5.01996   5.02444   5.04419   5.10147   5.12690
 Alpha virt. eigenvalues --    5.15169   5.21362   5.24135   5.25546   5.29328
 Alpha virt. eigenvalues --    5.33030   5.39740   5.47319   5.58963   5.59438
 Alpha virt. eigenvalues --    5.61710   5.68867   5.80645   6.02852   6.07542
 Alpha virt. eigenvalues --    6.14436   6.25212   6.30400   6.39619   6.47183
 Alpha virt. eigenvalues --    6.57572   6.64631   6.76993   6.81906   6.91166
 Alpha virt. eigenvalues --    7.04128  21.93803  22.23585  22.47684  22.52821
 Alpha virt. eigenvalues --   22.55082  22.68873  22.96873  31.78234  43.54474
 Alpha virt. eigenvalues --   43.65202
          Condensed to atoms (all electrons):
               1          2          3          4          5          6
     1  C    5.164483   0.424508  -0.025704  -0.027231  -0.005418   0.361185
     2  C    0.424508   5.030867   0.431247  -0.011701   0.047337  -0.139049
     3  C   -0.025704   0.431247   4.990802   0.348309  -0.145140   0.043486
     4  C   -0.027231  -0.011701   0.348309   4.706409   0.372380  -0.000716
     5  C   -0.005418   0.047337  -0.145140   0.372380   5.282755   0.219294
     6  C    0.361185  -0.139049   0.043486  -0.000716   0.219294   5.215195
     7  H   -0.023862   0.419266  -0.037939   0.005750  -0.001421   0.005315
     8  H    0.006648  -0.035315   0.409938  -0.022232   0.007087  -0.003003
     9  N   -0.001856  -0.002602  -0.036560   0.620250  -0.096335   0.024830
    10  H    0.004541  -0.000062   0.002452  -0.027109   0.402324  -0.016810
    11  H   -0.019372   0.006032  -0.001781   0.003215  -0.023399   0.401608
    12  H   -0.000413  -0.001243   0.015291  -0.061613  -0.021184   0.006896
    13  C    0.226865  -0.085563   0.011580  -0.002263   0.000418  -0.003566
    14  O   -0.127027   0.025624   0.004164   0.000010  -0.000614   0.006386
    15  O   -0.126670   0.004267   0.000115   0.000168  -0.000349   0.028185
    16  H    0.015262  -0.000389  -0.000000  -0.000005   0.000014  -0.002659
               7          8          9         10         11         12
     1  C   -0.023862   0.006648  -0.001856   0.004541  -0.019372  -0.000413
     2  C    0.419266  -0.035315  -0.002602  -0.000062   0.006032  -0.001243
     3  C   -0.037939   0.409938  -0.036560   0.002452  -0.001781   0.015291
     4  C    0.005750  -0.022232   0.620250  -0.027109   0.003215  -0.061613
     5  C   -0.001421   0.007087  -0.096335   0.402324  -0.023399  -0.021184
     6  C    0.005315  -0.003003   0.024830  -0.016810   0.401608   0.006896
     7  H    0.426881  -0.004222  -0.000032   0.000030  -0.000071   0.000010
     8  H   -0.004222   0.429335   0.002829  -0.000035   0.000023  -0.000378
     9  N   -0.000032   0.002829   6.254083  -0.001079  -0.000226   0.348823
    10  H    0.000030  -0.000035  -0.001079   0.437464  -0.003341   0.001369
    11  H   -0.000071   0.000023  -0.000226  -0.003341   0.431688  -0.000037
    12  H    0.000010  -0.000378   0.348823   0.001369  -0.000037   0.455400
    13  C   -0.012556  -0.000088  -0.000033  -0.000331  -0.008039  -0.000010
    14  O    0.014440  -0.000057   0.000000   0.000002   0.000312  -0.000000
    15  O    0.000498  -0.000000   0.000000  -0.000091   0.010528   0.000000
    16  H   -0.000043   0.000000  -0.000000   0.000000  -0.000531  -0.000000
              13         14         15         16
     1  C    0.226865  -0.127027  -0.126670   0.015262
     2  C   -0.085563   0.025624   0.004267  -0.000389
     3  C    0.011580   0.004164   0.000115  -0.000000
     4  C   -0.002263   0.000010   0.000168  -0.000005
     5  C    0.000418  -0.000614  -0.000349   0.000014
     6  C   -0.003566   0.006386   0.028185  -0.002659
     7  H   -0.012556   0.014440   0.000498  -0.000043
     8  H   -0.000088  -0.000057  -0.000000   0.000000
     9  N   -0.000033   0.000000   0.000000  -0.000000
    10  H   -0.000331   0.000002  -0.000091   0.000000
    11  H   -0.008039   0.000312   0.010528  -0.000531
    12  H   -0.000010  -0.000000   0.000000  -0.000000
    13  C    4.543072   0.601476   0.402680  -0.016228
    14  O    0.601476   7.790024  -0.072253   0.002612
    15  O    0.402680  -0.072253   7.830278   0.290744
    16  H   -0.016228   0.002612   0.290744   0.349721
 Mulliken charges:
               1
     1  C    0.154060
     2  C   -0.113224
     3  C   -0.010260
     4  C    0.096381
     5  C   -0.037749
     6  C   -0.146577
     7  H    0.207953
     8  H    0.209469
     9  N   -0.112092
    10  H    0.200675
    11  H    0.203391
    12  H    0.257089
    13  C    0.342585
    14  O   -0.245102
    15  O   -0.368101
    16  H    0.361502
 Sum of Mulliken charges =   1.00000
 Mulliken charges with hydrogens summed into heavy atoms:
               1
     1  C    0.154060
     2  C    0.094730
     3  C    0.199209
     4  C    0.096381
     5  C    0.162926
     6  C    0.056813
     9  N    0.144997
    13  C    0.342585
    14  O   -0.245102
    15  O   -0.006599
 Electronic spatial extent (au):  <R**2>=           1585.7008
 Charge=              1.0000 electrons
 Dipole moment (field-independent basis, Debye):
    X=              3.7686    Y=             -2.4750    Z=              0.7399  Tot=              4.5690
 Quadrupole moment (field-independent basis, Debye-Ang):
   XX=            -29.8654   YY=            -42.9705   ZZ=            -54.9236
   XY=             -0.9151   XZ=             -3.1913   YZ=             -0.8025
 Traceless Quadrupole moment (field-independent basis, Debye-Ang):
   XX=             12.7211   YY=             -0.3840   ZZ=            -12.3371
   XY=             -0.9151   XZ=             -3.1913   YZ=             -0.8025
 Octapole moment (field-independent basis, Debye-Ang**2):
  XXX=             -9.2406  YYY=             -1.2659  ZZZ=              0.4164  XYY=             18.7580
  XXY=            -50.2752  XXZ=             12.8066  XZZ=             -7.6164  YZZ=             -0.5770
  YYZ=              0.8839  XYZ=              3.5286
 Hexadecapole moment (field-independent basis, Debye-Ang**3):
 XXXX=          -1129.2187 YYYY=           -339.2511 ZZZZ=            -54.7556 XXXY=            -29.9206
 XXXZ=            -50.7906 YYYX=              1.7881 YYYZ=             -0.8289 ZZZX=             -1.9989
 ZZZY=             -0.6887 XXYY=           -281.3154 XXZZ=           -253.3319 YYZZ=            -80.9269
 XXYZ=            -14.0110 YYXZ=             -3.7527 ZZXY=             -0.0259
 N-N= 4.662992010597D+02 E-N=-2.029071829328D+03  KE= 4.725959782850D+02
   1 Symmetry operations used in ECPInt.
 ECPInt:  NShTT=    9045 NPrTT=   28204 LenC2=    8602 LenP2D=   20772.
 LDataN:  DoStor=T MaxTD1= 7 Len=  274
 Calling FoFJK, ICntrl=      2127 FMM=F ISym2X=0 I1Cent= 0 IOpClX= 0 NMat=1 NMatS=1 NMatT=0.
 ***** Axes restored to original set *****
 -------------------------------------------------------------------
 Center     Atomic                   Forces (Hartrees/Bohr)
 Number     Number              X              Y              Z
 -------------------------------------------------------------------
      1        6          -0.015005565   -0.016151620    0.004348212
      2        6          -0.003564490   -0.007367823    0.000206113
      3        6          -0.041810356    0.019090205   -0.000391750
      4        6          -0.018573531   -0.005148066    0.000255218
      5        6           0.043233745    0.007654834   -0.000768905
      6        6           0.001040945   -0.002726093   -0.000038129
      7        1           0.005393141   -0.007836503    0.000322250
      8        1           0.004870840    0.009307150   -0.000284476
      9        7           0.040330067   -0.026169811    0.000463027
     10        1          -0.005625058    0.008440509   -0.000088041
     11        1          -0.005927730   -0.007388519    0.000227898
     12        1          -0.021040212    0.000227528    0.000191688
     13        6           0.039417768   -0.074953686    0.000480966
     14        8          -0.067883492    0.049643989   -0.003644324
     15        8           0.036589090    0.064675914   -0.002550271
     16        1           0.008554837   -0.011298008    0.001270524
 -------------------------------------------------------------------
 Cartesian Forces:  Max     0.074953686 RMS     0.024208235

 GradGradGradGradGradGradGradGradGradGradGradGradGradGradGradGradGradGrad
 Berny optimization.
 FormGI is forming the generalized inverse of G from B-inverse, IUseBI=4.
 Internal  Forces:  Max     0.083729583 RMS     0.016405591
 Search for a local minimum.
 Step number   1 out of a maximum of   81
 All quantities printed in internal units (Hartrees-Bohrs-Radians)
 Mixed Optimization -- RFO/linear search
 Second derivative matrix not updated -- first step.
 ITU=  0
     Eigenvalues ---    0.00237   0.00590   0.00591   0.01124   0.01295
     Eigenvalues ---    0.01407   0.01445   0.01650   0.02021   0.02049
     Eigenvalues ---    0.02300   0.02345   0.03099   0.16000   0.16000
     Eigenvalues ---    0.16000   0.16000   0.16000   0.16000   0.22000
     Eigenvalues ---    0.22903   0.24001   0.25000   0.25000   0.25000
     Eigenvalues ---    0.25000   0.28519   0.29258   0.29513   0.37230
     Eigenvalues ---    0.37230   0.37230   0.37230   0.40989   0.41451
     Eigenvalues ---    0.42370   0.47688   0.50594   0.53771   0.55473
     Eigenvalues ---    0.69002   0.80209
 RFO step:  Lambda=-4.28827756D-02 EMin= 2.36824398D-03
 Linear search not attempted -- first point.
 Maximum step size (   0.300) exceeded in Quadratic search.
    -- Step size scaled by   0.913
 Iteration  1 RMS(Cart)=  0.06200258 RMS(Int)=  0.00190314
 Iteration  2 RMS(Cart)=  0.00177320 RMS(Int)=  0.00003866
 Iteration  3 RMS(Cart)=  0.00001048 RMS(Int)=  0.00003810
 Iteration  4 RMS(Cart)=  0.00000000 RMS(Int)=  0.00003810
 Variable       Old X    -DE/DX   Delta X   Delta X   Delta X     New X
                                 (Linear)    (Quad)   (Total)
    R1        2.67537  -0.00797   0.00000  -0.01457  -0.01457   2.66080
    R2        2.67537  -0.00429   0.00000  -0.00734  -0.00734   2.66803
    R3        2.91018  -0.02838   0.00000  -0.07898  -0.07898   2.83120
    R4        2.56236   0.00651   0.00000   0.01013   0.01013   2.57248
    R5        2.02201   0.00877   0.00000   0.01928   0.01928   2.04129
    R6        2.88378  -0.03730   0.00000  -0.10120  -0.10120   2.78259
    R7        2.02201   0.00861   0.00000   0.01893   0.01893   2.04094
    R8        2.88378  -0.03052   0.00000  -0.08281  -0.08280   2.80098
    R9        2.44455  -0.02573   0.00000  -0.03206  -0.03206   2.41249
   R10        2.56236   0.00627   0.00000   0.01003   0.01003   2.57239
   R11        2.02201   0.00898   0.00000   0.01976   0.01976   2.04177
   R12        2.02201   0.00891   0.00000   0.01958   0.01958   2.04159
   R13        1.88973   0.01822   0.00000   0.03200   0.03200   1.92173
   R14        2.37803  -0.08373   0.00000  -0.09048  -0.09048   2.28756
   R15        2.70231  -0.06552   0.00000  -0.13212  -0.13212   2.57019
   R16        1.81414   0.01038   0.00000   0.01586   0.01586   1.82999
    A1        2.13942   0.00029   0.00000   0.00392   0.00391   2.14333
    A2        2.07188  -0.00645   0.00000  -0.02160  -0.02160   2.05028
    A3        2.07188   0.00615   0.00000   0.01768   0.01768   2.08957
    A4        2.11717  -0.00728   0.00000  -0.02389  -0.02390   2.09327
    A5        2.08301  -0.00011   0.00000  -0.00491  -0.00491   2.07810
    A6        2.08301   0.00738   0.00000   0.02880   0.02881   2.11181
    A7        2.07286   0.00589   0.00000   0.01880   0.01879   2.09166
    A8        2.10516   0.00315   0.00000   0.01803   0.01803   2.12319
    A9        2.10516  -0.00904   0.00000  -0.03683  -0.03683   2.06834
   A10        2.04688   0.00462   0.00000   0.01179   0.01179   2.05867
   A11        2.11815  -0.01629   0.00000  -0.04947  -0.04948   2.06868
   A12        2.11815   0.01167   0.00000   0.03769   0.03768   2.15584
   A13        2.07286   0.00558   0.00000   0.01871   0.01872   2.09158
   A14        2.10516  -0.00755   0.00000  -0.03077  -0.03077   2.07439
   A15        2.10516   0.00197   0.00000   0.01206   0.01205   2.11722
   A16        2.11717  -0.00911   0.00000  -0.02932  -0.02931   2.08786
   A17        2.08301   0.00128   0.00000  -0.00007  -0.00007   2.08294
   A18        2.08301   0.00782   0.00000   0.02938   0.02938   2.11239
   A19        2.09440  -0.01990   0.00000  -0.08958  -0.08958   2.00482
   A20        2.09440   0.00520   0.00000   0.01622   0.01619   2.11059
   A21        2.09440  -0.02992   0.00000  -0.09328  -0.09331   2.00109
   A22        2.09440   0.02472   0.00000   0.07706   0.07703   2.17143
   A23        1.91063  -0.01030   0.00000  -0.04633  -0.04633   1.86430
    D1        0.00000  -0.00002   0.00000  -0.00024  -0.00023  -0.00023
    D2       -3.14159  -0.00003   0.00000  -0.00035  -0.00035   3.14124
    D3       -3.14159  -0.00017   0.00000  -0.00252  -0.00249   3.13910
    D4        0.00000  -0.00017   0.00000  -0.00264  -0.00261  -0.00261
    D5       -0.00000  -0.00004   0.00000  -0.00064  -0.00063  -0.00063
    D6        3.14159  -0.00005   0.00000  -0.00078  -0.00077   3.14082
    D7        3.14159   0.00010   0.00000   0.00165   0.00168  -3.13991
    D8        0.00000   0.00009   0.00000   0.00151   0.00154   0.00154
    D9       -0.00000   0.00036   0.00000   0.00643   0.00633   0.00633
   D10        3.14159  -0.00036   0.00000  -0.00710  -0.00702   3.13458
   D11        3.14159   0.00022   0.00000   0.00423   0.00414  -3.13745
   D12       -0.00000  -0.00050   0.00000  -0.00930  -0.00920  -0.00921
   D13       -0.00000   0.00005   0.00000   0.00070   0.00071   0.00071
   D14        3.14159  -0.00003   0.00000  -0.00045  -0.00046   3.14113
   D15       -3.14159   0.00006   0.00000   0.00081   0.00083  -3.14076
   D16        0.00000  -0.00002   0.00000  -0.00034  -0.00034  -0.00034
   D17       -0.00000  -0.00003   0.00000  -0.00037  -0.00038  -0.00039
   D18       -3.14159  -0.00006   0.00000  -0.00098  -0.00097   3.14062
   D19        3.14159   0.00005   0.00000   0.00077   0.00075  -3.14084
   D20        0.00000   0.00001   0.00000   0.00017   0.00017   0.00017
   D21        0.00000  -0.00003   0.00000  -0.00044  -0.00046  -0.00045
   D22        3.14159  -0.00004   0.00000  -0.00058  -0.00058   3.14101
   D23        3.14159   0.00001   0.00000   0.00016   0.00016  -3.14143
   D24       -0.00000  -0.00000   0.00000   0.00002   0.00004   0.00003
   D25        3.14159  -0.00001   0.00000  -0.00001  -0.00002   3.14157
   D26        0.00000  -0.00005   0.00000  -0.00064  -0.00064  -0.00064
   D27        0.00000   0.00006   0.00000   0.00092   0.00093   0.00094
   D28        3.14159   0.00008   0.00000   0.00106   0.00108  -3.14051
   D29       -3.14159   0.00007   0.00000   0.00106   0.00106  -3.14053
   D30        0.00000   0.00009   0.00000   0.00120   0.00121   0.00121
   D31        2.61799   0.00712   0.00000   0.11733   0.11751   2.73550
   D32       -0.52360   0.00640   0.00000   0.10380   0.10363  -0.41997
         Item               Value     Threshold  Converged?
 Maximum Force            0.083730     0.000450     NO 
 RMS     Force            0.016406     0.000300     NO 
 Maximum Displacement     0.273821     0.001800     NO 
 RMS     Displacement     0.062486     0.001200     NO 
 Predicted change in Energy=-2.373468D-02
 GradGradGradGradGradGradGradGradGradGradGradGradGradGradGradGradGradGrad

                          Input orientation:                          
 ---------------------------------------------------------------------
 Center     Atomic      Atomic             Coordinates (Angstroms)
 Number     Number       Type             X           Y           Z
 ---------------------------------------------------------------------
      1          6           0       -0.024579   -1.782173    0.044521
      2          6           0        1.217863   -1.120306    0.015711
      3          6           0        1.262329    0.239731   -0.022489
      4          6           0        0.009780    1.013824   -0.032628
      5          6           0       -1.269497    0.265894   -0.000731
      6          6           0       -1.257791   -1.094808    0.035996
      7          1           0        2.125099   -1.706549    0.024538
      8          1           0        2.199707    0.775698   -0.044815
      9          7           0        0.080796    2.288003   -0.067596
     10          1           0       -2.197383    0.819402   -0.007144
     11          1           0       -2.178689   -1.659271    0.058659
     12          1           0       -0.816599    2.766343   -0.072822
     13          6           0       -0.009155   -3.279811    0.082736
     14          8           0        1.035595   -3.891132    0.095003
     15          8           0       -1.239187   -3.859132    0.117989
     16          1           0       -1.135496   -4.758033   -0.226985
 ---------------------------------------------------------------------
                    Distance matrix (angstroms):
                    1          2          3          4          5
     1  C    0.000000
     2  C    1.408034   0.000000
     3  C    2.397649   1.361300   0.000000
     4  C    2.797272   2.452817   1.472482   0.000000
     5  C    2.397175   2.847592   2.532055   1.482217   0.000000
     6  C    1.411863   2.475869   2.852266   2.461254   1.361248
     7  H    2.151100   1.080202   2.129458   3.446487   3.926125
     8  H    3.390890   2.136004   1.080016   2.202869   3.506739
     9  N    4.073083   3.593944   2.365053   1.276636   2.432424
    10  H    3.389977   3.927709   3.507971   2.215856   1.080456
    11  H    2.157660   3.439316   3.931081   3.455888   2.129886
    12  H    4.618448   4.387814   3.272345   1.937999   2.542156
    13  C    1.498205   2.484658   3.743651   4.295226   3.763968
    14  O    2.360979   2.777946   4.138749   5.012701   4.754311
    15  O    2.407162   3.680859   4.803957   5.032723   4.126845
    16  H    3.188040   4.339385   5.546984   5.887594   5.030804
                    6          7          8          9         10
     6  C    0.000000
     7  H    3.437776   0.000000
     8  H    3.931872   2.484337   0.000000
     9  N    3.639500   4.488220   2.603338   0.000000
    10  H    2.132814   5.006525   4.397468   2.711188   0.000000
    11  H    1.080363   4.304183   5.011001   4.549965   2.479617
    12  H    3.887798   5.354422   3.614077   1.016933   2.387772
    13  C    2.517045   2.652090   4.619794   5.570570   4.647577
    14  O    3.616978   2.442209   4.811861   6.254581   5.714168
    15  O    2.765603   3.995093   5.773573   6.289998   4.777289
    16  H    3.674688   4.472840   6.463663   7.152021   5.681877
                   11         12         13         14         15
    11  H    0.000000
    12  H    4.632346   0.000000
    13  C    2.708064   6.101815   0.000000
    14  O    3.913329   6.912362   1.210523   0.000000
    15  O    2.392817   6.641680   1.360087   2.275123   0.000000
    16  H    3.282099   7.532709   1.884068   2.359836   0.968392
                   16
    16  H    0.000000
 Stoichiometry    C7H6NO2(1+)
 Framework group  C1[X(C7H6NO2)]
 Deg. of freedom    42
 Full point group                 C1      NOp   1
 Largest Abelian subgroup         C1      NOp   1
 Largest concise Abelian subgroup C1      NOp   1
                         Standard orientation:                         
 ---------------------------------------------------------------------
 Center     Atomic      Atomic             Coordinates (Angstroms)
 Number     Number       Type             X           Y           Z
 ---------------------------------------------------------------------
      1          6           0       -0.594353    0.040874   -0.006484
      2          6           0        0.101780    1.264762    0.000942
      3          6           0        1.463049    1.271990    0.006502
      4          6           0        2.202582   -0.001308    0.003820
      5          6           0        1.419361   -1.259664   -0.004474
      6          6           0        0.059000   -1.210717   -0.008799
      7          1           0       -0.459450    2.187723    0.002012
      8          1           0        2.024858    2.194366    0.011823
      9          7           0        3.478700    0.034806    0.008077
     10          1           0        1.947255   -2.202377   -0.007084
     11          1           0       -0.530843   -2.115839   -0.013851
     12          1           0        3.932281   -0.875366    0.005936
     13          6           0       -2.091493    0.097294   -0.009048
     14          8           0       -2.674101    1.158391   -0.011438
     15          8           0       -2.704949   -1.116483   -0.024940
     16          1           0       -3.592152   -0.986806    0.340899
 ---------------------------------------------------------------------
 Rotational constants (GHZ):           3.6693052           0.8382025           0.6825729
 Standard basis: def2TZVP (5D, 7F)
 There are   396 symmetry adapted cartesian basis functions of A   symmetry.
 There are   346 symmetry adapted basis functions of A   symmetry.
   346 basis functions,   558 primitive gaussians,   396 cartesian basis functions
    35 alpha electrons       35 beta electrons
       nuclear repulsion energy       475.7876764696 Hartrees.
 NAtoms=   16 NActive=   16 NUniq=   16 SFac= 1.00D+00 NAtFMM=   60 NAOKFM=F Big=F
 Integral buffers will be    131072 words long.
 Raffenetti 2 integral format.
 Two-electron integral symmetry is turned on.
 One-electron integrals computed using PRISM.
   1 Symmetry operations used in ECPInt.
 ECPInt:  NShTT=    9045 NPrTT=   28204 LenC2=    8635 LenP2D=   20934.
 LDataN:  DoStor=T MaxTD1= 6 Len=  172
 NBasis=   346 RedAO= T EigKep=  1.06D-05  NBF=   346
 NBsUse=   346 1.00D-06 EigRej= -1.00D+00 NBFU=   346
 Initial guess from the checkpoint file:  "C6H5NH+.chk"
 B after Tr=     0.000000    0.000000    0.000000
         Rot=    0.999997    0.000097    0.000012   -0.002427 Ang=   0.28 deg.
 ExpMin= 9.52D-02 ExpMax= 2.70D+04 ExpMxC= 9.22D+02 IAcc=2 IRadAn=         4 AccDes= 0.00D+00
 Harris functional with IExCor=  402 and IRadAn=       4 diagonalized for initial guess.
 HarFok:  IExCor=  402 AccDes= 0.00D+00 IRadAn=         4 IDoV= 1 UseB2=F ITyADJ=14
 ICtDFT=  3500011 ScaDFX=  1.000000  1.000000  1.000000  1.000000
 FoFCou: FMM=F IPFlag=           0 FMFlag=      100000 FMFlg1=           0
         NFxFlg=           0 DoJE=T BraDBF=F KetDBF=T FulRan=T
         wScrn=  0.000000 ICntrl=       500 IOpCl=  0 I1Cent=   200000004 NGrid=           0
         NMat0=    1 NMatS0=      1 NMatT0=    0 NMatD0=    1 NMtDS0=    0 NMtDT0=    0
 Petite list used in FoFCou.
 Requested convergence on RMS density matrix=1.00D-08 within 128 cycles.
 Requested convergence on MAX density matrix=1.00D-06.
 Requested convergence on             energy=1.00D-06.
 No special actions if energy rises.
 Integral accuracy reduced to 1.0D-05 until final iterations.
 Initial convergence to 1.0D-05 achieved.  Increase integral accuracy.
 SCF Done:  E(RB3LYP) =  -475.414540456     A.U. after   13 cycles
            NFock= 13  Conv=0.90D-08     -V/T= 2.0048
   1 Symmetry operations used in ECPInt.
 ECPInt:  NShTT=    9045 NPrTT=   28204 LenC2=    8635 LenP2D=   20934.
 LDataN:  DoStor=T MaxTD1= 7 Len=  274
 Calling FoFJK, ICntrl=      2127 FMM=F ISym2X=0 I1Cent= 0 IOpClX= 0 NMat=1 NMatS=1 NMatT=0.
 ***** Axes restored to original set *****
 -------------------------------------------------------------------
 Center     Atomic                   Forces (Hartrees/Bohr)
 Number     Number              X              Y              Z
 -------------------------------------------------------------------
      1        6          -0.005266262    0.001185941    0.002981440
      2        6           0.003579536   -0.000560565   -0.000140245
      3        6          -0.008654600    0.004919098   -0.000194144
      4        6          -0.009336868   -0.017875358    0.000491368
      5        6           0.012145375    0.002384262   -0.000175935
      6        6          -0.004233839    0.004222875   -0.000051818
      7        1          -0.000105732   -0.001864676    0.000141405
      8        1           0.000302544    0.002955465   -0.000053398
      9        7           0.012466177    0.007482607   -0.000263052
     10        1          -0.001253793    0.001972252    0.000014976
     11        1           0.000050108   -0.000653003   -0.000024455
     12        1          -0.006361500    0.000823716    0.000015482
     13        6           0.006992800   -0.025624342    0.005392597
     14        8          -0.014575462    0.009457734   -0.004198038
     15        8           0.015652843    0.018425099   -0.010485382
     16        1          -0.001401327   -0.007251105    0.006549200
 -------------------------------------------------------------------
 Cartesian Forces:  Max     0.025624342 RMS     0.007723157

 GradGradGradGradGradGradGradGradGradGradGradGradGradGradGradGradGradGrad
 Berny optimization.
 Using GEDIIS/GDIIS optimizer.
 FormGI is forming the generalized inverse of G from B-inverse, IUseBI=4.
 Internal  Forces:  Max     0.017750053 RMS     0.004422513
 Search for a local minimum.
 Step number   2 out of a maximum of   81
 All quantities printed in internal units (Hartrees-Bohrs-Radians)
 Mixed Optimization -- RFO/linear search
 Update second derivatives using D2CorX and points    1    2
 DE= -2.50D-02 DEPred=-2.37D-02 R= 1.06D+00
 TightC=F SS=  1.41D+00  RLast= 3.38D-01 DXNew= 5.0454D-01 1.0152D+00
 Trust test= 1.06D+00 RLast= 3.38D-01 DXMaxT set to 5.05D-01
 ITU=  1  0
 Use linear search instead of GDIIS.
     Eigenvalues ---    0.00237   0.00587   0.00610   0.01115   0.01259
     Eigenvalues ---    0.01440   0.01452   0.01675   0.02009   0.02049
     Eigenvalues ---    0.02306   0.02353   0.03099   0.15576   0.16000
     Eigenvalues ---    0.16000   0.16000   0.16000   0.16678   0.21991
     Eigenvalues ---    0.23004   0.23711   0.24015   0.25000   0.25000
     Eigenvalues ---    0.25102   0.28013   0.29444   0.31017   0.37179
     Eigenvalues ---    0.37230   0.37230   0.37384   0.39174   0.42157
     Eigenvalues ---    0.42426   0.47496   0.50518   0.53762   0.55367
     Eigenvalues ---    0.70970   0.79150
 RFO step:  Lambda=-5.93049424D-03 EMin= 2.36833756D-03
 Quartic linear search produced a step of  0.25831.
 Iteration  1 RMS(Cart)=  0.03307135 RMS(Int)=  0.02387331
 Iteration  2 RMS(Cart)=  0.02225684 RMS(Int)=  0.00168299
 Iteration  3 RMS(Cart)=  0.00174286 RMS(Int)=  0.00009946
 Iteration  4 RMS(Cart)=  0.00000631 RMS(Int)=  0.00009937
 Iteration  5 RMS(Cart)=  0.00000000 RMS(Int)=  0.00009937
 Variable       Old X    -DE/DX   Delta X   Delta X   Delta X     New X
                                 (Linear)    (Quad)   (Total)
    R1        2.66080   0.00132  -0.00376   0.00802   0.00425   2.66505
    R2        2.66803   0.00440  -0.00190   0.01493   0.01303   2.68106
    R3        2.83120   0.00499  -0.02040   0.04201   0.02161   2.85280
    R4        2.57248   0.00235   0.00262   0.00327   0.00589   2.57838
    R5        2.04129   0.00092   0.00498  -0.00163   0.00335   2.04463
    R6        2.78259  -0.00830  -0.02614  -0.00880  -0.03493   2.74765
    R7        2.04094   0.00173   0.00489   0.00110   0.00599   2.04693
    R8        2.80098  -0.01037  -0.02139  -0.02227  -0.04366   2.75732
    R9        2.41249   0.00864  -0.00828   0.02225   0.01397   2.42647
   R10        2.57239   0.00024   0.00259  -0.00179   0.00079   2.57318
   R11        2.04177   0.00209   0.00510   0.00207   0.00718   2.04894
   R12        2.04159   0.00030   0.00506  -0.00377   0.00129   2.04288
   R13        1.92173   0.00600   0.00827   0.00816   0.01642   1.93815
   R14        2.28756  -0.01740  -0.02337  -0.00799  -0.03136   2.25619
   R15        2.57019  -0.01775  -0.03413  -0.02186  -0.05598   2.51421
   R16        1.82999   0.00425   0.00410   0.00592   0.01001   1.84001
    A1        2.14333  -0.00210   0.00101  -0.00867  -0.00767   2.13566
    A2        2.05028  -0.00214  -0.00558  -0.00582  -0.01139   2.03889
    A3        2.08957   0.00425   0.00457   0.01449   0.01906   2.10863
    A4        2.09327  -0.00235  -0.00617  -0.00411  -0.01028   2.08299
    A5        2.07810  -0.00049  -0.00127  -0.00490  -0.00617   2.07193
    A6        2.11181   0.00284   0.00744   0.00901   0.01645   2.12826
    A7        2.09166   0.00170   0.00485   0.00304   0.00792   2.09957
    A8        2.12319   0.00162   0.00466   0.00802   0.01267   2.13586
    A9        2.06834  -0.00331  -0.00951  -0.01106  -0.02058   2.04775
   A10        2.05867   0.00266   0.00305   0.00700   0.01006   2.06873
   A11        2.06868  -0.00595  -0.01278  -0.01402  -0.02681   2.04187
   A12        2.15584   0.00329   0.00973   0.00703   0.01675   2.17259
   A13        2.09158   0.00131   0.00483  -0.00005   0.00478   2.09636
   A14        2.07439  -0.00173  -0.00795  -0.00104  -0.00898   2.06541
   A15        2.11722   0.00042   0.00311   0.00109   0.00420   2.12142
   A16        2.08786  -0.00121  -0.00757   0.00279  -0.00481   2.08305
   A17        2.08294   0.00001  -0.00002  -0.00105  -0.00106   2.08188
   A18        2.11239   0.00120   0.00759  -0.00174   0.00586   2.11825
   A19        2.00482  -0.00435  -0.02314  -0.00345  -0.02659   1.97822
   A20        2.11059   0.00343   0.00418   0.01248   0.01619   2.12678
   A21        2.00109  -0.00904  -0.02410  -0.01821  -0.04278   1.95830
   A22        2.17143   0.00562   0.01990   0.00646   0.02588   2.19731
   A23        1.86430   0.00630  -0.01197   0.06235   0.05038   1.91468
    D1       -0.00023  -0.00002  -0.00006  -0.00047  -0.00053  -0.00076
    D2        3.14124  -0.00003  -0.00009  -0.00069  -0.00079   3.14046
    D3        3.13910  -0.00009  -0.00064  -0.00183  -0.00244   3.13666
    D4       -0.00261  -0.00009  -0.00067  -0.00205  -0.00270  -0.00532
    D5       -0.00063  -0.00002  -0.00016  -0.00033  -0.00048  -0.00111
    D6        3.14082  -0.00003  -0.00020  -0.00044  -0.00064   3.14018
    D7       -3.13991   0.00006   0.00043   0.00109   0.00155  -3.13836
    D8        0.00154   0.00005   0.00040   0.00097   0.00139   0.00293
    D9        0.00633  -0.00004   0.00164  -0.01501  -0.01331  -0.00698
   D10        3.13458   0.00023  -0.00181   0.04233   0.04046  -3.10815
   D11       -3.13745  -0.00012   0.00107  -0.01635  -0.01523   3.13051
   D12       -0.00921   0.00016  -0.00238   0.04098   0.03854   0.02934
   D13        0.00071   0.00003   0.00018   0.00060   0.00079   0.00150
   D14        3.14113  -0.00001  -0.00012  -0.00023  -0.00036   3.14077
   D15       -3.14076   0.00004   0.00022   0.00083   0.00106  -3.13970
   D16       -0.00034  -0.00000  -0.00009   0.00000  -0.00009  -0.00043
   D17       -0.00039  -0.00001  -0.00010   0.00000  -0.00011  -0.00049
   D18        3.14062  -0.00004  -0.00025  -0.00071  -0.00095   3.13967
   D19       -3.14084   0.00003   0.00019   0.00079   0.00097  -3.13987
   D20        0.00017   0.00001   0.00004   0.00008   0.00012   0.00029
   D21       -0.00045  -0.00003  -0.00012  -0.00079  -0.00092  -0.00137
   D22        3.14101  -0.00002  -0.00015  -0.00040  -0.00056   3.14045
   D23       -3.14143   0.00000   0.00004  -0.00003   0.00001  -3.14142
   D24        0.00003   0.00001   0.00001   0.00035   0.00037   0.00041
   D25        3.14157  -0.00000  -0.00000   0.00016   0.00016  -3.14146
   D26       -0.00064  -0.00003  -0.00016  -0.00059  -0.00075  -0.00139
   D27        0.00094   0.00004   0.00024   0.00094   0.00119   0.00212
   D28       -3.14051   0.00005   0.00028   0.00105   0.00135  -3.13916
   D29       -3.14053   0.00004   0.00027   0.00054   0.00081  -3.13971
   D30        0.00121   0.00005   0.00031   0.00066   0.00098   0.00219
   D31        2.73550   0.00707   0.03035   0.28038   0.31064   3.04614
   D32       -0.41997   0.00733   0.02677   0.34004   0.36690  -0.05307
         Item               Value     Threshold  Converged?
 Maximum Force            0.017750     0.000450     NO 
 RMS     Force            0.004423     0.000300     NO 
 Maximum Displacement     0.338096     0.001800     NO 
 RMS     Displacement     0.052563     0.001200     NO 
 Predicted change in Energy=-6.021589D-03
 GradGradGradGradGradGradGradGradGradGradGradGradGradGradGradGradGradGrad

                          Input orientation:                          
 ---------------------------------------------------------------------
 Center     Atomic      Atomic             Coordinates (Angstroms)
 Number     Number       Type             X           Y           Z
 ---------------------------------------------------------------------
      1          6           0       -0.028623   -1.787075    0.028287
      2          6           0        1.214392   -1.121059    0.012765
      3          6           0        1.241962    0.242817   -0.014064
      4          6           0        0.001629    1.001479   -0.024631
      5          6           0       -1.261788    0.271781   -0.006573
      6          6           0       -1.264090   -1.089662    0.017934
      7          1           0        2.120799   -1.711812    0.022941
      8          1           0        2.168305    0.804099   -0.026153
      9          7           0        0.101577    2.281403   -0.047868
     10          1           0       -2.184823    0.840612   -0.013430
     11          1           0       -2.188091   -1.650689    0.029388
     12          1           0       -0.805599    2.759835   -0.054095
     13          6           0        0.007423   -3.296109    0.051192
     14          8           0        1.036213   -3.901951    0.048950
     15          8           0       -1.211512   -3.828604    0.023372
     16          1           0       -1.144981   -4.797388   -0.048073
 ---------------------------------------------------------------------
                    Distance matrix (angstroms):
                    1          2          3          4          5
     1  C    0.000000
     2  C    1.410285   0.000000
     3  C    2.395128   1.364419   0.000000
     4  C    2.789220   2.444864   1.453995   0.000000
     5  C    2.400167   2.841100   2.503929   1.459112   0.000000
     6  C    1.418756   2.478686   2.838453   2.444734   1.361666
     7  H    2.150745   1.081973   2.143432   3.443122   3.921404
     8  H    3.397593   2.148883   1.083187   2.175648   3.471208
     9  N    4.071273   3.580332   2.336119   1.284031   2.428796
    10  H    3.399364   3.924730   3.478536   2.192391   1.084255
    11  H    2.163771   3.443497   3.918229   3.439737   2.134297
    12  H    4.613552   4.375634   3.244917   1.935020   2.529976
    13  C    1.509638   2.487788   3.748645   4.298260   3.787357
    14  O    2.367911   2.786829   4.150351   5.011926   4.764865
    15  O    2.359469   3.635371   4.753673   4.980333   4.100803
    16  H    3.211553   4.368722   5.576945   5.911186   5.070685
                    6          7          8          9         10
     6  C    0.000000
     7  H    3.441593   0.000000
     8  H    3.920409   2.516838   0.000000
     9  N    3.637781   4.475270   2.540524   0.000000
    10  H    2.138853   5.005454   4.353300   2.702719   0.000000
    11  H    1.081046   4.309328   5.000726   4.550813   2.491671
    12  H    3.877374   5.344658   3.559465   1.025624   2.363753
    13  C    2.546813   2.641430   4.635418   5.579186   4.682155
    14  O    3.633363   2.444118   4.840886   6.254341   5.733312
    15  O    2.739452   3.947797   5.734767   6.249917   4.769724
    16  H    3.710226   4.493455   6.508072   7.187711   5.733194
                   11         12         13         14         15
    11  H    0.000000
    12  H    4.622875   0.000000
    13  C    2.743750   6.111182   0.000000
    14  O    3.932518   6.912473   1.193926   0.000000
    15  O    2.386851   6.601386   1.330462   2.249067   0.000000
    16  H    3.315991   7.564842   1.895185   2.359836   0.973690
                   16
    16  H    0.000000
 Stoichiometry    C7H6NO2(1+)
 Framework group  C1[X(C7H6NO2)]
 Deg. of freedom    42
 Full point group                 C1      NOp   1
 Largest Abelian subgroup         C1      NOp   1
 Largest concise Abelian subgroup C1      NOp   1
                         Standard orientation:                         
 ---------------------------------------------------------------------
 Center     Atomic      Atomic             Coordinates (Angstroms)
 Number     Number       Type             X           Y           Z
 ---------------------------------------------------------------------
      1          6           0       -0.599434    0.031487   -0.012848
      2          6           0        0.095879    1.258410   -0.002768
      3          6           0        1.460258    1.253752    0.006533
      4          6           0        2.189506   -0.004141    0.004166
      5          6           0        1.430020   -1.249954   -0.007680
      6          6           0        0.068699   -1.220098   -0.014625
      7          1           0       -0.473398    2.178514   -0.003023
      8          1           0        2.043356    2.166572    0.013728
      9          7           0        3.471625    0.065547    0.011141
     10          1           0        1.976947   -2.186154   -0.010502
     11          1           0       -0.514081   -2.130584   -0.021183
     12          1           0        3.928553   -0.852667    0.008895
     13          6           0       -2.107367    0.103153   -0.016190
     14          8           0       -2.688679    1.145925   -0.003524
     15          8           0       -2.668083   -1.102968    0.015406
     16          1           0       -3.634029   -1.013825    0.099512
 ---------------------------------------------------------------------
 Rotational constants (GHZ):           3.7210877           0.8407098           0.6858200
 Standard basis: def2TZVP (5D, 7F)
 There are   396 symmetry adapted cartesian basis functions of A   symmetry.
 There are   346 symmetry adapted basis functions of A   symmetry.
   346 basis functions,   558 primitive gaussians,   396 cartesian basis functions
    35 alpha electrons       35 beta electrons
       nuclear repulsion energy       477.3523263851 Hartrees.
 NAtoms=   16 NActive=   16 NUniq=   16 SFac= 1.00D+00 NAtFMM=   60 NAOKFM=F Big=F
 Integral buffers will be    131072 words long.
 Raffenetti 2 integral format.
 Two-electron integral symmetry is turned on.
 One-electron integrals computed using PRISM.
   1 Symmetry operations used in ECPInt.
 ECPInt:  NShTT=    9045 NPrTT=   28204 LenC2=    8639 LenP2D=   20957.
 LDataN:  DoStor=T MaxTD1= 6 Len=  172
 NBasis=   346 RedAO= T EigKep=  1.03D-05  NBF=   346
 NBsUse=   346 1.00D-06 EigRej= -1.00D+00 NBFU=   346
 Initial guess from the checkpoint file:  "C6H5NH+.chk"
 B after Tr=     0.000000   -0.000000   -0.000000
         Rot=    0.999998   -0.000051    0.000033   -0.001852 Ang=  -0.21 deg.
 ExpMin= 9.52D-02 ExpMax= 2.70D+04 ExpMxC= 9.22D+02 IAcc=2 IRadAn=         4 AccDes= 0.00D+00
 Harris functional with IExCor=  402 and IRadAn=       4 diagonalized for initial guess.
 HarFok:  IExCor=  402 AccDes= 0.00D+00 IRadAn=         4 IDoV= 1 UseB2=F ITyADJ=14
 ICtDFT=  3500011 ScaDFX=  1.000000  1.000000  1.000000  1.000000
 FoFCou: FMM=F IPFlag=           0 FMFlag=      100000 FMFlg1=           0
         NFxFlg=           0 DoJE=T BraDBF=F KetDBF=T FulRan=T
         wScrn=  0.000000 ICntrl=       500 IOpCl=  0 I1Cent=   200000004 NGrid=           0
         NMat0=    1 NMatS0=      1 NMatT0=    0 NMatD0=    1 NMtDS0=    0 NMtDT0=    0
 Petite list used in FoFCou.
 Requested convergence on RMS density matrix=1.00D-08 within 128 cycles.
 Requested convergence on MAX density matrix=1.00D-06.
 Requested convergence on             energy=1.00D-06.
 No special actions if energy rises.
 Integral accuracy reduced to 1.0D-05 until final iterations.
 Initial convergence to 1.0D-05 achieved.  Increase integral accuracy.
 SCF Done:  E(RB3LYP) =  -475.419599219     A.U. after   14 cycles
            NFock= 14  Conv=0.56D-08     -V/T= 2.0046
   1 Symmetry operations used in ECPInt.
 ECPInt:  NShTT=    9045 NPrTT=   28204 LenC2=    8639 LenP2D=   20957.
 LDataN:  DoStor=T MaxTD1= 7 Len=  274
 Calling FoFJK, ICntrl=      2127 FMM=F ISym2X=0 I1Cent= 0 IOpClX= 0 NMat=1 NMatS=1 NMatT=0.
 ***** Axes restored to original set *****
 -------------------------------------------------------------------
 Center     Atomic                   Forces (Hartrees/Bohr)
 Number     Number              X              Y              Z
 -------------------------------------------------------------------
      1        6          -0.000788984    0.003453047    0.001983189
      2        6           0.000669051   -0.000237511    0.000099864
      3        6           0.003832685   -0.001266486    0.000078851
      4        6          -0.002984150   -0.004598206    0.000166339
      5        6          -0.001548543   -0.000184811   -0.000116617
      6        6          -0.000705921    0.001329246   -0.000044923
      7        1          -0.000452985   -0.000138831   -0.000026433
      8        1          -0.000437619    0.000051236   -0.000037533
      9        7           0.001293205    0.005320680   -0.000174703
     10        1           0.000037736   -0.000601563    0.000009780
     11        1           0.000406830    0.000201938    0.000050869
     12        1          -0.000246796   -0.000265996    0.000047520
     13        6          -0.004634359   -0.000810521   -0.004463436
     14        8           0.008764721   -0.003059997    0.001273794
     15        8          -0.003654725    0.000265460   -0.000641200
     16        1           0.000449855    0.000542317    0.001794640
 -------------------------------------------------------------------
 Cartesian Forces:  Max     0.008764721 RMS     0.002266791

 GradGradGradGradGradGradGradGradGradGradGradGradGradGradGradGradGradGrad
 Berny optimization.
 Using GEDIIS/GDIIS optimizer.
 FormGI is forming the generalized inverse of G from B-inverse, IUseBI=4.
 Internal  Forces:  Max     0.009102875 RMS     0.001565480
 Search for a local minimum.
 Step number   3 out of a maximum of   81
 All quantities printed in internal units (Hartrees-Bohrs-Radians)
 Mixed Optimization -- RFO/linear search
 Update second derivatives using D2CorX and points    2    3
 DE= -5.06D-03 DEPred=-6.02D-03 R= 8.40D-01
 TightC=F SS=  1.41D+00  RLast= 5.02D-01 DXNew= 8.4853D-01 1.5065D+00
 Trust test= 8.40D-01 RLast= 5.02D-01 DXMaxT set to 8.49D-01
 ITU=  1  1  0
 Use linear search instead of GDIIS.
     Eigenvalues ---    0.00237   0.00584   0.00614   0.01106   0.01443
     Eigenvalues ---    0.01462   0.01662   0.01687   0.02004   0.02052
     Eigenvalues ---    0.02309   0.02357   0.03099   0.15433   0.16000
     Eigenvalues ---    0.16000   0.16000   0.16039   0.16702   0.21913
     Eigenvalues ---    0.22566   0.23062   0.24080   0.25000   0.25046
     Eigenvalues ---    0.25169   0.28470   0.29445   0.31238   0.37202
     Eigenvalues ---    0.37230   0.37230   0.37408   0.39835   0.42219
     Eigenvalues ---    0.42527   0.47445   0.50477   0.53814   0.55393
     Eigenvalues ---    0.69854   0.83400
 RFO step:  Lambda=-2.04588141D-03 EMin= 2.37073013D-03
 Quartic linear search produced a step of  0.05035.
 Iteration  1 RMS(Cart)=  0.06921255 RMS(Int)=  0.01359823
 Iteration  2 RMS(Cart)=  0.01997149 RMS(Int)=  0.00376453
 Iteration  3 RMS(Cart)=  0.00063705 RMS(Int)=  0.00371337
 Iteration  4 RMS(Cart)=  0.00000195 RMS(Int)=  0.00371337
 Iteration  5 RMS(Cart)=  0.00000002 RMS(Int)=  0.00371337
 Variable       Old X    -DE/DX   Delta X   Delta X   Delta X     New X
                                 (Linear)    (Quad)   (Total)
    R1        2.66505   0.00008   0.00021   0.00054   0.00076   2.66581
    R2        2.68106   0.00080   0.00066   0.00309   0.00375   2.68481
    R3        2.85280   0.00305   0.00109   0.01280   0.01389   2.86669
    R4        2.57838  -0.00044   0.00030  -0.00016   0.00014   2.57851
    R5        2.04463  -0.00030   0.00017  -0.00043  -0.00026   2.04437
    R6        2.74765   0.00302  -0.00176   0.00668   0.00492   2.75257
    R7        2.04693  -0.00035   0.00030  -0.00029   0.00001   2.04694
    R8        2.75732   0.00083  -0.00220  -0.00181  -0.00401   2.75332
    R9        2.42647   0.00512   0.00070   0.00899   0.00969   2.43616
   R10        2.57318  -0.00110   0.00004  -0.00206  -0.00202   2.57116
   R11        2.04894  -0.00035   0.00036  -0.00017   0.00019   2.04914
   R12        2.04288  -0.00045   0.00007  -0.00105  -0.00098   2.04190
   R13        1.93815   0.00009   0.00083   0.00196   0.00279   1.94094
   R14        2.25619   0.00910  -0.00158   0.00831   0.00673   2.26292
   R15        2.51421   0.00259  -0.00282   0.00042  -0.00240   2.51181
   R16        1.84001  -0.00064   0.00050  -0.00013   0.00037   1.84038
    A1        2.13566   0.00095  -0.00039   0.00310   0.00272   2.13837
    A2        2.03889  -0.00164  -0.00057  -0.00794  -0.00851   2.03038
    A3        2.10863   0.00069   0.00096   0.00483   0.00579   2.11442
    A4        2.08299  -0.00026  -0.00052  -0.00210  -0.00261   2.08038
    A5        2.07193  -0.00024  -0.00031  -0.00253  -0.00285   2.06908
    A6        2.12826   0.00050   0.00083   0.00463   0.00546   2.13372
    A7        2.09957  -0.00089   0.00040  -0.00276  -0.00236   2.09721
    A8        2.13586   0.00072   0.00064   0.00495   0.00559   2.14145
    A9        2.04775   0.00017  -0.00104  -0.00219  -0.00322   2.04453
   A10        2.06873   0.00074   0.00051   0.00445   0.00496   2.07369
   A11        2.04187  -0.00082  -0.00135  -0.00643  -0.00778   2.03408
   A12        2.17259   0.00008   0.00084   0.00198   0.00283   2.17541
   A13        2.09636  -0.00077   0.00024  -0.00296  -0.00273   2.09363
   A14        2.06541   0.00089  -0.00045   0.00393   0.00348   2.06889
   A15        2.12142  -0.00012   0.00021  -0.00097  -0.00075   2.12067
   A16        2.08305   0.00023  -0.00024   0.00027   0.00003   2.08308
   A17        2.08188  -0.00016  -0.00005  -0.00083  -0.00088   2.08100
   A18        2.11825  -0.00008   0.00030   0.00056   0.00085   2.11910
   A19        1.97822  -0.00068  -0.00134  -0.00753  -0.00887   1.96936
   A20        2.12678  -0.00131   0.00082   0.00043  -0.01627   2.11051
   A21        1.95830  -0.00131  -0.00215  -0.00581  -0.02559   1.93272
   A22        2.19731   0.00272   0.00130   0.01853   0.00144   2.19875
   A23        1.91468  -0.00088   0.00254  -0.00107   0.00146   1.91615
    D1       -0.00076  -0.00001  -0.00003  -0.00032  -0.00034  -0.00110
    D2        3.14046   0.00001  -0.00004   0.00081   0.00077   3.14122
    D3        3.13666  -0.00002  -0.00012  -0.00140  -0.00151   3.13514
    D4       -0.00532   0.00000  -0.00014  -0.00027  -0.00040  -0.00572
    D5       -0.00111   0.00003  -0.00002   0.00129   0.00127   0.00016
    D6        3.14018   0.00002  -0.00003   0.00092   0.00089   3.14107
    D7       -3.13836   0.00005   0.00008   0.00244   0.00253  -3.13584
    D8        0.00293   0.00004   0.00007   0.00208   0.00215   0.00508
    D9       -0.00698   0.00131  -0.00067   0.15694   0.15385   0.14688
   D10       -3.10815  -0.00138   0.00204  -0.17814  -0.17370   3.00134
   D11        3.13051   0.00130  -0.00077   0.15587   0.15269  -2.99999
   D12        0.02934  -0.00139   0.00194  -0.17921  -0.17486  -0.14552
   D13        0.00150  -0.00001   0.00004  -0.00030  -0.00026   0.00124
   D14        3.14077   0.00003  -0.00002   0.00146   0.00144  -3.14097
   D15       -3.13970  -0.00003   0.00005  -0.00147  -0.00141  -3.14111
   D16       -0.00043  -0.00000  -0.00000   0.00029   0.00029  -0.00014
   D17       -0.00049   0.00000  -0.00001  -0.00002  -0.00002  -0.00051
   D18        3.13967   0.00002  -0.00005   0.00114   0.00108   3.14076
   D19       -3.13987  -0.00003   0.00005  -0.00170  -0.00165  -3.14152
   D20        0.00029  -0.00001   0.00001  -0.00055  -0.00054  -0.00025
   D21       -0.00137   0.00002  -0.00005   0.00099   0.00094  -0.00043
   D22        3.14045  -0.00000  -0.00003  -0.00026  -0.00028   3.14017
   D23       -3.14142   0.00000   0.00000  -0.00025  -0.00025   3.14151
   D24        0.00041  -0.00002   0.00002  -0.00149  -0.00148  -0.00107
   D25       -3.14146   0.00003   0.00001   0.00053   0.00054  -3.14091
   D26       -0.00139   0.00005  -0.00004   0.00176   0.00172   0.00033
   D27        0.00212  -0.00003   0.00006  -0.00159  -0.00153   0.00059
   D28       -3.13916  -0.00003   0.00007  -0.00122  -0.00114  -3.14030
   D29       -3.13971  -0.00001   0.00004  -0.00030  -0.00026  -3.13998
   D30        0.00219  -0.00001   0.00005   0.00007   0.00012   0.00231
   D31        3.04614   0.00287   0.01564   0.30118   0.31648  -2.92057
   D32       -0.05307   0.00017   0.01847  -0.04963  -0.03082  -0.08389
         Item               Value     Threshold  Converged?
 Maximum Force            0.009103     0.000450     NO 
 RMS     Force            0.001565     0.000300     NO 
 Maximum Displacement     0.520474     0.001800     NO 
 RMS     Displacement     0.085578     0.001200     NO 
 Predicted change in Energy=-1.190893D-03
 GradGradGradGradGradGradGradGradGradGradGradGradGradGradGradGradGradGrad

                          Input orientation:                          
 ---------------------------------------------------------------------
 Center     Atomic      Atomic             Coordinates (Angstroms)
 Number     Number       Type             X           Y           Z
 ---------------------------------------------------------------------
      1          6           0       -0.031316   -1.788746   -0.056634
      2          6           0        1.213885   -1.126522   -0.025559
      3          6           0        1.241925    0.237417    0.001283
      4          6           0       -0.002053    0.995175   -0.000697
      5          6           0       -1.265659    0.270519   -0.032359
      6          6           0       -1.268231   -1.089798   -0.059893
      7          1           0        2.116646   -1.722665   -0.024578
      8          1           0        2.165228    0.803321    0.025210
      9          7           0        0.105678    2.279534    0.026634
     10          1           0       -2.189030    0.839041   -0.032353
     11          1           0       -2.191324   -1.650882   -0.084853
     12          1           0       -0.804216    2.756004    0.024264
     13          6           0        0.013464   -3.304608   -0.094124
     14          8           0        1.045583   -3.893601    0.053500
     15          8           0       -1.204922   -3.815208    0.052751
     16          1           0       -1.142863   -4.771304    0.227350
 ---------------------------------------------------------------------
                    Distance matrix (angstroms):
                    1          2          3          4          5
     1  C    0.000000
     2  C    1.410685   0.000000
     3  C    2.393707   1.364491   0.000000
     4  C    2.784637   2.445551   1.456600   0.000000
     5  C    2.400992   2.846033   2.508028   1.456993   0.000000
     6  C    1.420738   2.482625   2.840092   2.440045   1.360598
     7  H    2.149218   1.081834   2.146562   3.446173   3.925918
     8  H    3.398576   2.152191   1.083194   2.175911   3.472489
     9  N    4.071438   3.582187   2.337080   1.289159   2.433143
    10  H    3.400232   3.929797   3.483465   2.192771   1.084357
    11  H    2.164587   3.445855   3.919221   3.435347   2.133400
    12  H    4.610713   4.375982   3.245074   1.935099   2.528591
    13  C    1.516987   2.487925   3.750222   4.300826   3.797566
    14  O    2.366909   2.773320   4.136011   5.000061   4.763308
    15  O    2.344326   3.617429   4.734287   4.958783   4.087065
    16  H    3.195596   4.347719   5.552081   5.882664   5.050001
                    6          7          8          9         10
     6  C    0.000000
     7  H    3.443713   0.000000
     8  H    3.921707   2.526944   0.000000
     9  N    3.639713   4.479310   2.533961   0.000000
    10  H    2.137532   5.010114   4.354785   2.710015   0.000000
    11  H    1.080528   4.308990   5.001478   4.553770   2.490478
    12  H    3.874607   5.347177   3.553952   1.027101   2.365515
    13  C    2.559160   2.632633   4.638903   5.586209   4.693039
    14  O    3.637019   2.422031   4.828611   6.244337   5.733061
    15  O    2.728472   3.926516   5.717472   6.234119   4.757914
    16  H    3.694823   4.470130   6.485428   7.163341   5.712957
                   11         12         13         14         15
    11  H    0.000000
    12  H    4.621323   0.000000
    13  C    2.756081   6.116669   0.000000
    14  O    3.940368   6.902164   1.197487   0.000000
    15  O    2.382484   6.583480   1.329190   2.251870   0.000000
    16  H    3.306625   7.537658   1.895160   2.364293   0.973887
                   16
    16  H    0.000000
 Stoichiometry    C7H6NO2(1+)
 Framework group  C1[X(C7H6NO2)]
 Deg. of freedom    42
 Full point group                 C1      NOp   1
 Largest Abelian subgroup         C1      NOp   1
 Largest concise Abelian subgroup C1      NOp   1
                         Standard orientation:                         
 ---------------------------------------------------------------------
[...]
   zy        -0.978062D+00     -0.144934D+00     -0.161261D+00
   zz         0.448091D+02      0.664003D+01      0.738803D+01

 ----------------------------------------------------------------------

 Dipole orientation:
     6         -1.71063689         -1.49168744         -2.49258956
     6          0.22902564          0.22863780         -3.10855854
     6          1.53585339          1.38512512         -1.21127986
     6          0.92316783          0.83902420          1.42006745
     6         -1.09712010         -0.95542572          1.96923878
     6         -2.36988441         -2.08121715          0.03943914
     1          0.62854665          0.58477134         -5.08097927
     1          3.04360319          2.72268181         -1.56181914
     7          2.23521467          2.00084724          3.11061131
     1         -1.54765738         -1.35888582          3.92572495
     1         -3.87380887         -3.41626995          0.39251840
     1          1.71735311          1.53844734          4.92086733
     6         -3.08283211         -2.70717053         -4.69436804
     8         -2.53810136         -2.23021602         -6.84043850
     8         -4.87945578         -4.29244018         -3.92373516
     1         -5.71389130         -5.03129042         -5.38696229

 Electric dipole moment (dipole orientation):
 (Debye = 10**-18 statcoulomb cm , SI units = C m)
                  (au)            (Debye)         (10**-30 SI)
   Tot        0.162322D+01      0.412580D+01      0.137622D+02
   x          0.000000D+00      0.000000D+00      0.000000D+00
   y          0.000000D+00      0.000000D+00      0.000000D+00
   z          0.162322D+01      0.412580D+01      0.137622D+02

 Dipole polarizability, Alpha (dipole orientation).
 (esu units = cm**3 , SI units = C**2 m**2 J**-1)
 Alpha(0;0):
               (au)            (10**-24 esu)      (10**-40 SI)
   iso        0.946251D+02      0.140220D+02      0.156016D+02
   aniso      0.883371D+02      0.130902D+02      0.145648D+02
   xx         0.838644D+02      0.124274D+02      0.138274D+02
   yx         0.346075D+02      0.512830D+01      0.570601D+01
   yy         0.754579D+02      0.111817D+02      0.124413D+02
   zx         0.200280D+02      0.296785D+01      0.330218D+01
   zy         0.176896D+02      0.262133D+01      0.291662D+01
   zz         0.124553D+03      0.184568D+02      0.205360D+02

 ----------------------------------------------------------------------
 1\1\GINC-N11\Freq\RB3LYP\def2TZVP\C7H6N1O2(1+)\UNKNOWN\20-Jan-2025\0\\
 #N Geom=AllCheck Guess=TCheck SCRF=Check GenChk RB3LYP/def2TZVP Freq\\
 opt\\1,1\C,-0.0312185194,-1.783625685,0.0080311867\C,1.214442881,-1.12
 26676378,0.0051403927\C,1.2451923279,0.2410256352,-0.0076855629\C,-0.0
 003100832,1.0000754651,-0.0182381851\C,-1.2661612339,0.2743247772,-0.0
 137119641\C,-1.267324227,-1.0862763467,-0.0010175989\H,2.1162552546,-1
 .7195898932,0.0133293023\H,2.1687451151,0.8058522355,-0.0107132266\N,0
 .1056245737,2.2842048282,-0.0302976372\H,-2.1900605015,0.8406176446,-0
 .0208331541\H,-2.1899676518,-1.6485096322,0.0023383106\H,-0.8027497693
 ,2.7611192588,-0.0367626768\C,0.0094152169,-3.2990923402,0.0230335151\
 O,1.0469270245,-3.8990343304,0.0348290915\O,-1.2121185729,-3.829922354
 3,0.0214260571\H,-1.143900125,-4.8008240548,0.0310741297\\Version=ES64
 L-G16RevA.03\State=1-A\HF=-475.4199424\RMSD=3.344e-09\RMSF=3.384e-05\Z
 eroPoint=0.1195634\Thermal=0.1279568\Dipole=-1.0716437,1.2190812,-0.01
 57829\DipoleDeriv=0.8350381,-0.0937851,0.0021077,-0.0832997,0.6229842,
 -0.0042644,0.0021026,-0.0028344,0.202208,-0.3259645,-0.4432665,0.00362
 4,-0.7448808,-0.7498569,0.0048334,0.0065368,0.0052091,-0.056137,0.0551
 54,-0.1884748,0.0019349,0.465126,0.748101,-0.0055381,-0.0043819,-0.007
 2929,0.0506303,0.0224972,-0.0095228,-0.0003095,0.0146057,-0.6880252,0.
 0084651,-0.0006066,0.0083762,0.1974792,0.0222463,0.1562914,-0.0017669,
 -0.4135842,0.647166,-0.0061365,0.0037065,-0.0049483,0.0939621,-0.28129
 77,0.4618034,-0.004873,0.7220201,-0.7434327,0.0079704,-0.0071486,0.005
 8826,-0.0813125,0.133572,-0.0136627,0.000143,0.0057098,0.1437649,-0.00
 00162,-0.0001884,-0.0001851,0.142176,0.1392014,0.0336232,-0.0003137,0.
 0162543,0.0964648,0.000394,-0.0001208,0.0006706,0.1341547,0.0043048,0.
 0406486,0.0002477,0.0058848,0.1701156,-0.0043445,0.00056,-0.0043402,-0
 .2860849,0.1103624,-0.0123405,0.0000715,0.0118051,0.0529618,0.0008205,
 -0.0001809,0.0009531,0.1357249,0.112494,-0.0000316,-0.0000286,0.001479
 5,0.1326756,0.0000681,-0.0000175,0.0000258,0.1380236,0.0847252,0.00188
 93,-0.0004255,-0.0473668,0.4365933,-0.0017292,0.0000873,-0.0014541,0.2
 670257,1.5344401,0.5899897,0.0015527,0.1889646,1.322698,-0.0088143,0.0
 049668,-0.0050594,0.3069674,-0.7833228,-0.2098767,-0.0008799,0.2269577
 ,-0.7842107,0.006072,-0.0050066,0.002489,-0.2905719,-0.966495,-0.45217
 59,0.0005202,-0.4852546,-0.8424069,0.0022932,0.0010293,0.0023527,-0.31
 1258,0.3030445,0.1388909,-0.0016045,0.1155785,0.4344071,-0.0000734,-0.
 0013381,0.0001553,0.3570123\Polar=92.3934474,-1.544693,146.6726884,0.1
 571644,-0.9780617,44.8091198\Quadrupole=-1.0643861,10.619069,-9.554682
 9,0.6405809,0.0061382,-0.1709555\PG=C01 [X(C7H6N1O2)]\NImag=0\\0.66349
 129,0.00815022,0.56982512,0.00126242,-0.00374395,0.16595422,-0.2675950
 4,-0.08709730,0.00027708,0.68275946,-0.03285146,-0.15634028,0.00076780
 ,-0.06530364,0.74522252,-0.00025615,0.00058911,-0.06702539,0.00211068,
 -0.00601333,0.12990678,0.00666966,-0.03960582,0.00038414,-0.12490647,-
 0.00586190,-0.00009776,0.65255575,-0.05293043,-0.02368197,0.00013086,0
 .02236691,-0.41066903,0.00332847,0.07327293,0.74762678,0.00050445,0.00
 014719,0.00347795,-0.00036571,0.00326413,-0.06454814,0.00057599,-0.005
 49280,0.15128868,0.01460286,-0.00013854,0.00006545,0.00477182,-0.00090
 540,-0.00000567,-0.22570482,0.05059580,-0.00088626,0.56863336,-0.00246
 403,-0.00579383,-0.00006890,0.02021455,-0.02764469,0.00042972,0.043108
 42,-0.10204892,0.00039605,0.00493618,0.78756281,0.00008460,-0.00006451
 ,-0.01216832,-0.00020790,0.00036952,0.01094631,-0.00079233,0.00040836,
 -0.07366373,0.00088579,-0.00610846,0.15271724,0.00685864,0.03846632,-0
 .00034386,-0.00566088,-0.01319528,0.00011592,-0.04232795,-0.00009192,-
 0.00010851,-0.22241334,-0.03542751,0.00005820,0.64547725,0.05247400,-0
 .02626874,0.00040732,-0.01346934,-0.02679232,0.00019487,0.00226512,0.0
 3027423,-0.00018921,-0.03813336,-0.10155779,0.00012074,-0.07261596,0.7
 4411191,-0.00050406,0.00036391,0.00411883,0.00011830,0.00020639,-0.001
 84991,-0.00015063,-0.00018830,0.01013135,0.00009628,0.00012619,-0.0816
 1987,0.00167551,-0.00579664,0.14296495,-0.25182871,0.08266536,-0.00116
 385,-0.04269515,-0.00610525,-0.00006134,-0.00585954,0.01242942,-0.0001
 2790,0.00618830,-0.02111908,0.00018880,-0.12322234,-0.02946411,0.00016
 398,0.67847212,0.02817957,-0.15723762,0.00089309,0.00986500,0.05884761
 ,-0.00045759,0.01385242,-0.02920705,0.00029233,-0.00427431,-0.03185024
 ,0.00040724,0.00044886,-0.41862676,0.00333639,0.07265075,0.73926519,-0
 .00064908,0.00102906,-0.06465939,-0.00021735,-0.00051460,0.00726077,-0
 .00013175,0.00028168,-0.00268973,0.00002458,0.00038286,0.01275387,-0.0
 0013691,0.00325682,-0.06243508,0.00045406,-0.00555617,0.12733107,-0.02
 116685,0.01397765,-0.00019940,-0.26102046,0.13122826,-0.00184999,0.008
 98176,-0.00312908,0.00003798,0.00030984,-0.00182144,-0.00001094,0.0004
 5803,-0.00038697,0.00000669,-0.00209747,-0.00375168,0.00001465,0.27334
 106,-0.01328028,0.01454627,-0.00013444,0.13225515,-0.14334843,0.001295
 76,0.02647402,-0.01265967,0.00024613,-0.00277172,-0.00257317,0.0001155
 5,-0.00029932,-0.00059934,-0.00000140,-0.00325223,-0.00233205,0.000060
 85,-0.13940609,0.14869758,0.00005662,-0.00007193,0.00398401,-0.0018609
 4,0.00130466,-0.04389039,-0.00023878,0.00016672,0.00564740,0.00000211,
 0.00011481,0.01005403,0.00000508,-0.00000407,-0.00061895,0.00001272,0.
 00006136,0.00508906,0.00200445,-0.00151010,0.02921742,-0.00109737,0.00
 146574,-0.00003967,0.00870171,0.00417073,-0.00004623,-0.27144374,-0.12
 799153,0.00063345,-0.01817130,-0.01440927,0.00008211,-0.00202977,0.004
 33889,-0.00005172,0.00096351,-0.00124536,0.00001694,0.00059210,-0.0002
 0228,0.00001670,0.28026697,0.00056868,-0.00559636,0.00013722,-0.025752
 73,-0.00861247,0.00012690,-0.12898819,-0.13545384,0.00055057,0.0164731
 8,0.01068335,-0.00001798,0.00337148,-0.00240772,0.00004809,0.00028298,
 -0.00046306,-0.00000243,0.00010815,0.00110720,-0.00005871,0.13564384,0
 .13822613,-0.00002208,0.00014915,0.00849191,0.00023074,0.00018858,0.01
 155771,0.00064465,0.00056430,-0.04338575,-0.00021910,-0.00010828,0.004
 40461,-0.00004162,0.00005648,0.00168350,0.00000523,-0.00000934,-0.0008
 2835,0.00001565,-0.00005935,-0.00500860,-0.00064046,-0.00073152,0.0251
 5812,-0.01576540,0.00028273,-0.00004587,0.00083164,0.01567340,-0.00016
 175,0.00953901,0.03146917,-0.00025686,-0.11022648,0.00740677,-0.000218
 05,0.00235024,-0.03579233,0.00028190,-0.00322965,-0.01246872,0.0001229
 6,0.00052848,0.00131218,-0.00001011,0.00208166,-0.00058111,0.00001707,
 0.44114865,0.00216998,0.00525685,-0.00002678,0.00835901,-0.00095918,0.
 00008664,0.02076745,-0.05476266,0.00046485,-0.05540473,-0.50890422,0.0
 0436350,-0.01897776,-0.05051657,0.00074246,-0.01029675,0.00423049,-0.0
 0009534,-0.00036321,-0.00133210,0.00001265,-0.00147998,0.00185313,-0.0
 0003142,-0.11917437,0.71290141,-0.00005932,-0.00004054,0.00137258,-0.0
 0009341,0.00010624,0.00583493,-0.00015013,0.00048961,-0.01116790,0.000
 39196,0.00449670,-0.04141842,0.00012188,0.00070853,0.03135854,0.000092
 72,-0.00009604,-0.00350046,0.00000380,0.00001773,0.00019861,0.00002314
 ,-0.00003295,-0.00129551,0.00194734,-0.00653649,0.05782014,-0.00094835
 ,-0.00129066,-0.00000784,0.00100950,0.00127824,-0.00000745,-0.00218384
 ,-0.00466363,0.00003767,-0.01724092,0.01552280,-0.00018967,-0.26702988
 ,0.12700876,-0.00163034,0.00771761,-0.00391954,0.00003098,0.00002873,0
 .00011381,0.00000048,-0.00072790,0.00077768,-0.00001405,0.00225868,0.0
 0066543,0.00000277,0.27618891,-0.00141620,-0.00586955,0.00013502,0.000
 04332,0.00005860,-0.00001165,-0.00337536,-0.00245400,0.00003488,-0.015
 55743,0.01007547,-0.00009326,0.12526951,-0.13547954,0.00113354,0.02742
 884,-0.01052481,0.00025950,0.00009600,0.00001013,-0.00000716,-0.000662
 45,0.00070356,0.00001153,0.00003621,0.00270740,-0.00005160,-0.13381298
 ,0.14008888,-0.00000239,0.00013477,0.00905221,0.00000227,-0.00000676,-
 0.00123749,0.00002189,0.00003752,0.00200044,0.00011099,-0.00003790,0.0
 0340340,-0.00161493,0.00114299,-0.04117643,-0.00026770,0.00018667,0.01
 107065,0.00000135,-0.00000730,-0.00079957,-0.00000067,0.00001484,0.002
 19818,0.00000947,-0.00004900,-0.00271857,0.00174823,-0.00135417,0.0240
 3125,-0.02015941,-0.01315951,0.00007197,-0.00198782,0.00376974,-0.0000
 4777,0.00045742,0.00046676,-0.00000161,0.00044249,0.00164241,-0.000039
 12,0.00772357,0.00245290,-0.00002117,-0.27143119,-0.12780228,0.0007323
 8,-0.00065821,-0.00080021,0.00000507,0.00003363,-0.00009478,0.00000186
 ,0.00060470,0.00034428,0.00000468,0.00069300,-0.00002871,0.00001292,0.
 28357820,0.01537488,0.01299606,-0.00005809,0.00350272,-0.00213387,0.00
 007102,0.00037551,-0.00077606,0.00000129,0.00281998,-0.00316612,0.0001
 3743,-0.02772288,-0.01271209,0.00012265,-0.12944522,-0.13505536,0.0005
 9150,0.00075718,0.00077758,-0.00000233,-0.00010811,0.00002439,-0.00000
 661,-0.00171551,-0.00148410,-0.00001327,0.00012043,0.00109302,-0.00005
 787,0.13559448,0.14250119,-0.00019263,-0.00010667,0.00327329,-0.000045
 55,0.00006997,0.00456402,0.00000078,-0.00000219,-0.00074698,-0.0000465
 4,0.00013811,0.01112219,0.00026196,0.00019135,0.00645024,0.00074466,0.
 00058652,-0.04327028,-0.00000857,-0.00000477,0.00029506,0.00000268,-0.
 00000674,-0.00065807,0.00002087,-0.00001089,-0.00259105,0.00000997,-0.
 00006034,-0.00530471,-0.00074221,-0.00079081,0.02810188,-0.00000025,0.
 00038129,-0.00000220,-0.00127511,-0.00087540,0.00001265,-0.00024005,0.
 00333817,-0.00006965,-0.00083255,-0.01793432,0.00016129,0.00501732,-0.
 00201098,0.00005836,0.00050295,-0.00088278,0.00000241,0.00007280,0.000
 09671,0.00000159,0.00059838,-0.00039114,0.00000626,-0.32996445,0.17347
 440,-0.00228737,0.00000421,0.00054401,-0.00000753,-0.00000955,-0.00003
 437,-0.00000172,0.32608021,0.00160142,-0.00010034,0.00000232,0.0017171
 1,-0.00067342,-0.00002503,-0.00209283,-0.00496469,0.00021348,0.0427349
 8,-0.02710229,0.00039684,0.00099294,0.00146160,-0.00014163,-0.00084487
 ,0.00215919,0.00000494,-0.00012657,-0.00034459,-0.00000756,0.00019285,
 0.00006497,-0.00000492,0.11341975,-0.10682908,0.00093453,-0.00160172,-
 0.00038332,0.00001197,-0.00008652,0.00017442,0.00000644,-0.15575498,0.
 13660473,-0.00001595,0.00000211,-0.00019962,-0.00000717,-0.00003312,-0
 .00377296,-0.00002610,0.00022872,0.01803248,-0.00042592,0.00026602,0.0
 0437238,0.00002877,-0.00014697,-0.01357786,0.00000708,0.00000122,0.002
 77882,0.00000474,-0.00000729,-0.00108913,0.00000111,-0.00000578,-0.000
 50842,-0.00170467,0.00106240,-0.03359575,0.00001332,0.00001611,0.00120
 502,-0.00000160,0.00000606,0.00083655,0.00212610,-0.00139351,0.0252971
 0,-0.08305021,-0.02777521,0.00035165,0.01090587,-0.02463017,0.00022637
 ,-0.00879660,-0.00614938,0.00001837,0.00289384,0.00104073,-0.00000056,
 -0.00707053,0.00059757,-0.00003513,0.00646846,0.02965467,-0.00028150,-
 0.00249437,-0.00239657,0.00002237,-0.00000527,-0.00163793,0.00002136,-
 0.00218343,0.00044681,-0.00000692,0.00021582,0.00131261,-0.00000728,-0
 .00194856,0.00199314,-0.00001646,0.00030156,-0.00018027,0.00000028,0.8
 9819953,-0.00898342,-0.15435714,0.00048274,-0.01159052,-0.01398112,0.0
 0023797,0.00262461,-0.00458567,0.00012301,-0.00042688,0.00630500,-0.00
 006362,-0.00359573,-0.00260606,0.00008380,0.00970604,-0.00314936,0.000
 21885,0.00164785,0.00003748,-0.00001857,-0.00013552,0.00066011,-0.0000
 3721,-0.00011357,-0.00377396,0.00003344,0.00012887,0.00107287,-0.00003
 722,-0.00123688,0.00185781,-0.00004747,0.00018387,-0.00078382,0.000008
 31,-0.13881850,0.63944726,0.00023868,0.00041899,-0.09366787,0.00012562
 ,0.00021832,0.01250759,-0.00008371,0.00007985,0.00716487,0.00002584,-0
 .00005217,-0.00025443,0.00001475,0.00007132,0.00649839,-0.00012211,0.0
 0021651,0.01399842,-0.00002218,-0.00003751,-0.00291729,0.00000643,-0.0
 0003800,-0.00261822,-0.00001267,0.00003671,-0.00028390,0.00000375,-0.0
 0003534,-0.00266335,0.00000580,-0.00002852,-0.00247958,0.00000114,0.00
 000659,0.00007511,0.00514278,-0.00515686,0.19123695,-0.01564168,0.0368
 2432,-0.00059175,-0.00520637,-0.00422353,0.00004387,0.00320122,0.00045
 302,0.00000939,-0.00183200,0.00013178,-0.00000575,-0.00039093,0.001599
 03,-0.00000440,0.00266922,0.00068236,0.00002592,0.00229212,0.00034579,
 0.00000520,0.00006501,0.00037722,-0.00000857,0.00113196,-0.00088498,0.
 00001313,0.00005336,0.00037739,-0.00000889,0.00090521,-0.00131966,0.00
 000617,-0.00016172,-0.00004790,-0.00000135,-0.55690904,0.26585160,-0.0
 0536561,0.67257885,0.04749932,-0.03733436,0.00087916,0.00061959,-0.004
 88933,0.00005159,0.00030555,0.00319613,-0.00004169,0.00026460,-0.00237
 601,0.00001369,0.00342992,-0.00027536,-0.00001509,-0.00481234,-0.00936
 919,0.00002819,0.00110809,-0.00224053,0.00002248,0.00014658,-0.0001008
 2,0.00001209,0.00018939,0.00101700,-0.00001074,-0.00022591,-0.00091875
 ,0.00001977,-0.00011782,0.00001639,0.00000831,-0.00006749,0.00040386,-
 0.00000090,0.27239663,-0.27533912,0.00362287,-0.32283245,0.29093893,-0
 .00070391,0.00083043,0.02296310,-0.00003460,0.00000526,-0.00071270,0.0
 0001334,-0.00002711,-0.00082664,-0.00001453,0.00001609,-0.00044044,-0.
 00004254,0.00000611,-0.00148305,0.00008049,0.00008126,-0.00251268,-0.0
 0000106,0.00001411,-0.00047573,-0.00000199,0.00000940,0.00065554,0.000
 00660,-0.00001519,-0.00009250,0.00000168,0.00001933,0.00067331,0.00000
 548,-0.00000536,0.00045009,-0.00000170,-0.00000188,0.00015837,-0.00538
 943,0.00353489,-0.06904715,0.00682053,-0.00446423,0.02756532,-0.008678
 92,-0.01032461,0.00002032,0.00058981,-0.00132776,0.00001122,0.00055007
 ,0.00097279,-0.00000690,-0.00136156,-0.00115377,0.00000626,0.00189467,
 0.00125480,-0.00000646,-0.00197793,-0.00202545,-0.00000416,0.00090756,
 0.00193273,-0.00002246,0.00016726,-0.00003861,0.00000361,0.00086846,0.
 00035320,-0.00000443,-0.00006838,-0.00027095,0.00000348,0.00103493,0.0
 0004599,0.00000375,-0.00012001,0.00015028,0.00000088,-0.25767012,-0.06
 154464,-0.00045246,-0.10510718,-0.00446841,-0.00072194,0.41777847,-0.0
 4185340,-0.02962220,0.00014688,0.00355652,-0.00842891,0.00010354,-0.00
 287639,0.00062008,-0.00000970,-0.00017393,-0.00214302,0.00002128,-0.00
 006094,0.00248578,-0.00002443,0.00070020,-0.00809790,0.00006584,0.0002
 4550,0.00041678,-0.00000575,0.00028492,-0.00065378,0.00000490,0.000057
 44,0.00076191,-0.00000845,-0.00013739,-0.00019245,0.00000082,-0.001069
 40,-0.00403136,0.00002809,-0.00010538,0.00043606,-0.00000360,-0.095756
 63,-0.16552044,0.00044761,0.01378724,0.03542398,0.00001568,0.05568530,
 0.64701733,0.00030333,0.00032096,0.00891421,-0.00003248,0.00007907,0.0
 0082128,0.00003034,-0.00000257,-0.00026135,-0.00000449,0.00001251,-0.0
 0002680,0.00000599,-0.00001959,-0.00039414,-0.00000803,0.00006242,-0.0
 0023964,0.00000222,0.00000895,0.00012553,-0.00000168,0.00000610,0.0000
 0246,0.00000345,-0.00000568,-0.00004979,0.00000092,0.00000223,0.000110
 55,0.00001290,0.00003365,0.00004385,0.00000040,-0.00000269,0.00003991,
 -0.00015452,0.00064123,-0.06177514,-0.00088822,-0.00008927,0.02857381,
 0.00155168,-0.00546186,0.04164674,-0.00569026,-0.00282198,-0.00003858,
 0.00077750,-0.00084056,0.00001338,-0.00049188,-0.00040901,0.00000610,-
 0.00005955,0.00032579,-0.00000273,0.00036589,-0.00011801,0.00000290,-0
 .00064021,0.00103648,-0.00000412,-0.00007513,-0.00012169,-0.00000010,0
 .00000512,-0.00011870,-0.00000055,0.00002593,0.00000123,0.00000017,0.0
 0002944,0.00001618,-0.00000122,0.00072158,-0.00023856,0.00000285,0.000
 02625,-0.00007366,0.00000046,0.00114305,-0.05369717,0.00049394,0.00235
 197,0.00656474,-0.00001642,-0.04880715,0.06771634,-0.00082181,0.050317
 45,-0.00223884,-0.00042191,0.00004974,0.00071366,0.00034432,-0.0000079
 9,-0.00024554,-0.00045367,-0.00000051,-0.00003840,0.00053368,-0.000006
 32,0.00000827,-0.00049124,0.00000406,-0.00052374,0.00141092,-0.0000115
 6,-0.00018363,-0.00016315,0.00000352,-0.00000905,-0.00003479,0.0000016
 5,-0.00000143,-0.00016633,0.00000331,0.00003579,0.00001247,0.00000088,
 0.00012554,-0.00008190,0.00000109,0.00003838,-0.00012328,0.00000023,-0
 .01009749,-0.02528383,0.00022963,0.00887878,0.00184717,-0.00001876,0.0
 2075912,-0.46847186,0.00441454,-0.01722141,0.49154339,-0.00004454,0.00
 004195,0.00611828,0.00000044,-0.00001213,-0.00036240,0.00000004,-0.000
 00311,-0.00045295,-0.00000049,-0.00000334,-0.00018204,0.00000032,-0.00
 000005,-0.00005051,0.00000119,-0.00000585,-0.00014705,0.00000060,0.000
 00307,0.00018854,-0.00000014,0.00000101,0.00015087,0.00000032,0.000001
 58,0.00012905,-0.00000043,0.00000138,0.00015511,0.00000043,-0.00000075
 ,-0.00008650,-0.00000004,0.00000010,-0.00005201,0.00010864,-0.00000328
 ,0.00422561,-0.00004967,-0.00003623,-0.00544863,-0.00038240,0.00467915
 ,-0.01753147,0.00036572,-0.00466350,0.01334610\\-0.00000507,-0.0000695
 5,-0.00006808,0.00000115,-0.00002142,0.00000522,-0.00002833,0.00002403
 ,0.00005599,0.00001417,0.00000454,-0.00008774,0.00001674,-0.00007144,0
 .00004058,-0.00002580,0.00004323,0.00001147,0.00000412,0.00000720,0.00
 000382,0.00001502,-0.00002140,0.00000018,-0.00000360,0.00000409,0.0000
 0005,-0.00000242,0.00000803,0.00000457,-0.00000397,-0.00000414,-0.0000
 0008,-0.00000870,0.00001296,0.00001161,-0.00000276,-0.00006559,0.00002
 152,-0.00003011,0.00004582,0.00000020,0.00004493,0.00010699,0.00000723
 ,0.00001463,-0.00000336,-0.00000656\\\@


 THE CAUTIOUS SELDOM ERR...CONFUCIUS                   
 Job cpu time:       0 days  0 hours 23 minutes 46.4 seconds.
 Elapsed time:       0 days  0 hours 23 minutes 48.6 seconds.
 File lengths (MBytes):  RWF=    171 Int=      0 D2E=      0 Chk=     11 Scr=      1
 Normal termination of Gaussian 16 at Mon Jan 20 12:44:25 2025.
