 Entering Gaussian System, Link 0=g16
 Initial command:
 /sw/cluster/pub/apps//g16/l1.exe "/data/mmaximo/27764/Gau-1917398.inp" -scrdir="/data/mmaximo/27764/"
 Entering Link 1 = /sw/cluster/pub/apps//g16/l1.exe PID=   1917399.
  
 Copyright (c) 1988,1990,1992,1993,1995,1998,2003,2009,2016,
            Gaussian, Inc.  All Rights Reserved.
  
 This is part of the Gaussian(R) 16 program.  It is based on
 the Gaussian(R) 09 system (copyright 2009, Gaussian, Inc.),
 the Gaussian(R) 03 system (copyright 2003, Gaussian, Inc.),
 the Gaussian(R) 98 system (copyright 1998, Gaussian, Inc.),
 the Gaussian(R) 94 system (copyright 1995, Gaussian, Inc.),
 the Gaussian 92(TM) system (copyright 1992, Gaussian, Inc.),
 the Gaussian 90(TM) system (copyright 1990, Gaussian, Inc.),
 the Gaussian 88(TM) system (copyright 1988, Gaussian, Inc.),
 the Gaussian 86(TM) system (copyright 1986, Carnegie Mellon
 University), and the Gaussian 82(TM) system (copyright 1983,
 Carnegie Mellon University). Gaussian is a federally registered
 trademark of Gaussian, Inc.
  
 This software contains proprietary and confidential information,
 including trade secrets, belonging to Gaussian, Inc.
  
 This software is provided under written license and may be
 used, copied, transmitted, or stored only in accord with that
 written license.
  
 The following legend is applicable only to US Government
 contracts under FAR:
  
                    RESTRICTED RIGHTS LEGEND
  
 Use, reproduction and disclosure by the US Government is
 subject to restrictions as set forth in subparagraphs (a)
 and (c) of the Commercial Computer Software - Restricted
 Rights clause in FAR 52.227-19.
  
 Gaussian, Inc.
 340 Quinnipiac St., Bldg. 40, Wallingford CT 06492
  
  
 ---------------------------------------------------------------
 Warning -- This program may not be used in any manner that
 competes with the business of Gaussian, Inc. or will provide
 assistance to any competitor of Gaussian, Inc.  The licensee
 of this program is prohibited from giving any competitor of
 Gaussian, Inc. access to this program.  By using this program,
 the user acknowledges that Gaussian, Inc. is engaged in the
 business of creating and licensing software in the field of
 computational chemistry and represents and warrants to the
 licensee that it is not a competitor of Gaussian, Inc. and that
 it will not use this program in any manner prohibited above.
 ---------------------------------------------------------------
  

 Cite this work as:
 Gaussian 16, Revision A.03,
 M. J. Frisch, G. W. Trucks, H. B. Schlegel, G. E. Scuseria, 
 M. A. Robb, J. R. Cheeseman, G. Scalmani, V. Barone, 
 G. A. Petersson, H. Nakatsuji, X. Li, M. Caricato, A. V. Marenich, 
 J. Bloino, B. G. Janesko, R. Gomperts, B. Mennucci, H. P. Hratchian, 
 J. V. Ortiz, A. F. Izmaylov, J. L. Sonnenberg, D. Williams-Young, 
 F. Ding, F. Lipparini, F. Egidi, J. Goings, B. Peng, A. Petrone, 
 T. Henderson, D. Ranasinghe, V. G. Zakrzewski, J. Gao, N. Rega, 
 G. Zheng, W. Liang, M. Hada, M. Ehara, K. Toyota, R. Fukuda, 
 J. Hasegawa, M. Ishida, T. Nakajima, Y. Honda, O. Kitao, H. Nakai, 
 T. Vreven, K. Throssell, J. A. Montgomery, Jr., J. E. Peralta, 
 F. Ogliaro, M. J. Bearpark, J. J. Heyd, E. N. Brothers, K. N. Kudin, 
 V. N. Staroverov, T. A. Keith, R. Kobayashi, J. Normand, 
 K. Raghavachari, A. P. Rendell, J. C. Burant, S. S. Iyengar, 
 J. Tomasi, M. Cossi, J. M. Millam, M. Klene, C. Adamo, R. Cammi, 
 J. W. Ochterski, R. L. Martin, K. Morokuma, O. Farkas, 
 J. B. Foresman, and D. J. Fox, Gaussian, Inc., Wallingford CT, 2016.
 
 ******************************************
 Gaussian 16:  ES64L-G16RevA.03 25-Dec-2016
                14-Jan-2025 
 ******************************************
 %chk=C6H5OH.chk
 ----------------------------------------
 #P B3LYP/def2tzvp nosymm Density=Current
 ----------------------------------------
 1/30=1,38=1,172=1/1;
 2/12=2,15=1,17=6,18=5,40=1/2;
 3/5=44,7=101,11=2,25=1,30=1,74=-5/1,2,3;
 4//1;
 5/5=2,38=5/2;
 6/7=2,8=2,9=2,10=2,22=-1,28=1/1;
 99/5=1,9=1/99;
 Leave Link    1 at Tue Jan 14 14:15:14 2025, MaxMem=           0 cpu:               0.0 elap:               0.0
 (Enter /sw/cluster/pub/apps//g16/l101.exe)
 ------------
 Single-Point
 ------------
 Symbolic Z-matrix:
 Charge =  0 Multiplicity = 1
 C                     0.02168  -1.85087   0. 
 C                    -1.18373  -1.15997   0. 
 C                    -1.20048   0.23039   0. 
 C                     0.        0.9368    0. 
 C                     1.21294   0.2518    0. 
 C                     1.21626  -1.13582   0. 
 H                     0.03158  -2.93274   0. 
 H                    -2.12124  -1.70189   0. 
 H                    -2.14415   0.76574   0. 
 O                     0.04802   2.30274   0. 
 H                     2.13522   0.81761   0. 
 H                     2.16215  -1.66306   0. 
 H                    -0.84768   2.65843   0. 
 
 ITRead=  0  0  0  0  0  0  0  0  0  0  0  0  0
 MicOpt= -1 -1 -1 -1 -1 -1 -1 -1 -1 -1 -1 -1 -1
 NAtoms=     13 NQM=       13 NQMF=       0 NMMI=      0 NMMIF=      0
                NMic=       0 NMicF=      0.
                    Isotopes and Nuclear Properties:
 (Nuclear quadrupole moments (NQMom) in fm**2, nuclear magnetic moments (NMagM)
  in nuclear magnetons)

  Atom         1           2           3           4           5           6           7           8           9          10
 IAtWgt=          12          12          12          12          12          12           1           1           1          16
 AtmWgt=  12.0000000  12.0000000  12.0000000  12.0000000  12.0000000  12.0000000   1.0078250   1.0078250   1.0078250  15.9949146
 NucSpn=           0           0           0           0           0           0           1           1           1           0
 AtZEff=  -0.0000000  -0.0000000  -0.0000000  -0.0000000  -0.0000000  -0.0000000  -0.0000000  -0.0000000  -0.0000000  -0.0000000
 NQMom=    0.0000000   0.0000000   0.0000000   0.0000000   0.0000000   0.0000000   0.0000000   0.0000000   0.0000000   0.0000000
 NMagM=    0.0000000   0.0000000   0.0000000   0.0000000   0.0000000   0.0000000   2.7928460   2.7928460   2.7928460   0.0000000
 AtZNuc=   6.0000000   6.0000000   6.0000000   6.0000000   6.0000000   6.0000000   1.0000000   1.0000000   1.0000000   8.0000000

  Atom        11          12          13
 IAtWgt=           1           1           1
 AtmWgt=   1.0078250   1.0078250   1.0078250
 NucSpn=           1           1           1
 AtZEff=  -0.0000000  -0.0000000  -0.0000000
 NQMom=    0.0000000   0.0000000   0.0000000
 NMagM=    2.7928460   2.7928460   2.7928460
 AtZNuc=   1.0000000   1.0000000   1.0000000
 Leave Link  101 at Tue Jan 14 14:15:14 2025, MaxMem=   104857600 cpu:               0.0 elap:               0.0
 (Enter /sw/cluster/pub/apps//g16/l202.exe)
                          Input orientation:                          
 ---------------------------------------------------------------------
 Center     Atomic      Atomic             Coordinates (Angstroms)
 Number     Number       Type             X           Y           Z
 ---------------------------------------------------------------------
      1          6           0        0.021681   -1.850874    0.000000
      2          6           0       -1.183734   -1.159974    0.000000
      3          6           0       -1.200479    0.230395    0.000000
      4          6           0        0.000000    0.936802    0.000000
      5          6           0        1.212939    0.251805    0.000000
      6          6           0        1.216256   -1.135819    0.000000
      7          1           0        0.031580   -2.932741    0.000000
      8          1           0       -2.121239   -1.701886    0.000000
      9          1           0       -2.144147    0.765738    0.000000
     10          8           0        0.048018    2.302739    0.000000
     11          1           0        2.135217    0.817608    0.000000
     12          1           0        2.162150   -1.663065    0.000000
     13          1           0       -0.847679    2.658425    0.000000
 ---------------------------------------------------------------------
                    Distance matrix (angstroms):
                    1          2          3          4          5
     1  C    0.000000
     2  C    1.389377   0.000000
     3  C    2.413578   1.390470   0.000000
     4  C    2.787761   2.407841   1.392897   0.000000
     5  C    2.416683   2.781575   2.413513   1.392997   0.000000
     6  C    1.392234   2.400112   2.776175   2.403131   1.387628
     7  H    1.081912   2.149347   3.394613   3.869673   3.396608
     8  H    2.148093   1.082859   2.140446   3.385607   3.864408
     9  H    3.396685   2.151919   1.084943   2.150960   3.396196
    10  O    4.153697   3.675268   2.419371   1.366780   2.358680
    11  H    3.404091   3.863453   3.386988   2.138541   1.082003
    12  H    2.148693   3.383495   3.859075   3.381449   2.137224
    13  H    4.592338   3.833159   2.453528   1.918996   3.168275
                    6          7          8          9         10
     6  C    0.000000
     7  H    2.152298   0.000000
     8  H    3.385160   2.479846   0.000000
     9  H    3.861117   4.290983   2.467730   0.000000
    10  O    3.631592   5.235506   4.554416   2.677305   0.000000
    11  H    2.158788   4.300048   4.946238   4.279678   2.561643
    12  H    1.082914   2.480203   4.283565   4.944014   4.494124
    13  H    4.319273   5.659880   4.542496   2.294144   0.963736
                   11         12         13
    11  H    0.000000
    12  H    2.480819   0.000000
    13  H    3.505179   5.266341   0.000000
 Symmetry turned off by external request.
 Stoichiometry    C6H6O
 Framework group  CS[SG(C6H6O)]
 Deg. of freedom    23
 Full point group                 CS      NOp   2
 Rotational constants (GHZ):           5.6947219           2.6293958           1.7988306
 Leave Link  202 at Tue Jan 14 14:15:14 2025, MaxMem=   104857600 cpu:               0.0 elap:               0.0
 (Enter /sw/cluster/pub/apps//g16/l301.exe)
 Standard basis: def2TZVP (5D, 7F)
 Ernie: Thresh=  0.10000D-02 Tol=  0.10000D-05 Strict=F.
   253 basis functions,   405 primitive gaussians,   288 cartesian basis functions
    25 alpha electrons       25 beta electrons
       nuclear repulsion energy       271.7216259842 Hartrees.
 IExCor=  402 DFT=T Ex+Corr=B3LYP ExCW=0 ScaHFX=  0.200000
 ScaDFX=  0.800000  0.720000  1.000000  0.810000 ScalE2=  1.000000  1.000000
 IRadAn=      5 IRanWt=     -1 IRanGd=            0 ICorTp=0 IEmpDi=  4
 NAtoms=   13 NActive=   13 NUniq=   13 SFac= 1.00D+00 NAtFMM=   60 NAOKFM=F Big=F
 Integral buffers will be    131072 words long.
 Raffenetti 2 integral format.
 Two-electron integral symmetry is turned off.
 Leave Link  301 at Tue Jan 14 14:15:14 2025, MaxMem=   104857600 cpu:               0.0 elap:               0.0
 (Enter /sw/cluster/pub/apps//g16/l302.exe)
 NPDir=0 NMtPBC=     1 NCelOv=     1 NCel=       1 NClECP=     1 NCelD=      1
         NCelK=      1 NCelE2=     1 NClLst=     1 CellRange=     0.0.
 One-electron integrals computed using PRISM.
   1 Symmetry operations used in ECPInt.
 ECPInt:  NShTT=    5151 NPrTT=   15748 LenC2=    5092 LenP2D=   12853.
 LDataN:  DoStor=T MaxTD1= 6 Len=  172
 NBasis=   253 RedAO= T EigKep=  1.04D-05  NBF=   253
 NBsUse=   253 1.00D-06 EigRej= -1.00D+00 NBFU=   253
 Precomputing XC quadrature grid using
 IXCGrd= 4 IRadAn=           5 IRanWt=          -1 IRanGd=           0 AccXCQ= 0.00D+00.
 Generated NRdTot=       0 NPtTot=           0 NUsed=           0 NTot=          32
 NSgBfM=   287   287   287   287   287 MxSgAt=    13 MxSgA2=    13.
 Leave Link  302 at Tue Jan 14 14:15:14 2025, MaxMem=   104857600 cpu:               0.1 elap:               0.1
 (Enter /sw/cluster/pub/apps//g16/l303.exe)
 DipDrv:  MaxL=1.
 Leave Link  303 at Tue Jan 14 14:15:14 2025, MaxMem=   104857600 cpu:               0.0 elap:               0.0
 (Enter /sw/cluster/pub/apps//g16/l401.exe)
 ExpMin= 9.52D-02 ExpMax= 2.70D+04 ExpMxC= 9.22D+02 IAcc=3 IRadAn=         5 AccDes= 0.00D+00
 Harris functional with IExCor=  402 and IRadAn=       5 diagonalized for initial guess.
 HarFok:  IExCor=  402 AccDes= 0.00D+00 IRadAn=         5 IDoV= 1 UseB2=F ITyADJ=14
 ICtDFT=  3500011 ScaDFX=  1.000000  1.000000  1.000000  1.000000
 FoFCou: FMM=F IPFlag=           0 FMFlag=      100000 FMFlg1=           0
         NFxFlg=           0 DoJE=T BraDBF=F KetDBF=T FulRan=T
         wScrn=  0.000000 ICntrl=       500 IOpCl=  0 I1Cent=   200000004 NGrid=           0
         NMat0=    1 NMatS0=      1 NMatT0=    0 NMatD0=    1 NMtDS0=    0 NMtDT0=    0
 Symmetry not used in FoFCou.
 Harris En= -307.641738237889    
 JPrj=0 DoOrth=F DoCkMO=F.
 Leave Link  401 at Tue Jan 14 14:15:16 2025, MaxMem=   104857600 cpu:               1.9 elap:               1.9
 (Enter /sw/cluster/pub/apps//g16/l502.exe)
 Two-electron integral symmetry not used.
 Closed shell SCF:
 Using DIIS extrapolation, IDIIS=  1040.
 NGot=   104857600 LenX=   104687995 LenY=   104604610
 Requested convergence on RMS density matrix=1.00D-08 within 128 cycles.
 Requested convergence on MAX density matrix=1.00D-06.
 Requested convergence on             energy=1.00D-06.
 No special actions if energy rises.
 Fock matrices will be formed incrementally for  20 cycles.
 Integral accuracy reduced to 1.0D-05 until final iterations.

 Cycle   1  Pass 0  IDiag  1:
 FoFJK:  IHMeth= 1 ICntrl=       0 DoSepK=F KAlg= 0 I1Cent=           0 FoldK=F
 IRaf= 970000000 NMat=       1 IRICut=       1 DoRegI=T DoRafI=F ISym2E= 0 IDoP0=0 IntGTp=1.
 FoFCou: FMM=F IPFlag=           0 FMFlag=      100000 FMFlg1=           0
         NFxFlg=           0 DoJE=F BraDBF=F KetDBF=F FulRan=T
         wScrn=  0.000000 ICntrl=         0 IOpCl=  0 I1Cent=           0 NGrid=           0
         NMat0=    1 NMatS0=      1 NMatT0=    0 NMatD0=    1 NMtDS0=    0 NMtDT0=    0
 Symmetry not used in FoFCou.
 E= -307.385217070658    
 DIIS: error= 3.32D-02 at cycle   1 NSaved=   1.
 NSaved= 1 IEnMin= 1 EnMin= -307.385217070658     IErMin= 1 ErrMin= 3.32D-02
 ErrMax= 3.32D-02  0.00D+00 EMaxC= 1.00D-01 BMatC= 2.23D-01 BMatP= 2.23D-01
 IDIUse=3 WtCom= 6.68D-01 WtEn= 3.32D-01
 Coeff-Com:  0.100D+01
 Coeff-En:   0.100D+01
 Coeff:      0.100D+01
 Gap=     0.228 Goal=   None    Shift=    0.000
 GapD=    0.228 DampG=1.000 DampE=0.500 DampFc=0.5000 IDamp=-1.
 Damping current iteration by 5.00D-01
 RMSDP=5.50D-03 MaxDP=3.42D-01              OVMax= 1.96D-01

 Cycle   2  Pass 0  IDiag  1:
 RMSU=  2.74D-03    CP:  9.83D-01
 E= -307.472573661506     Delta-E=       -0.087356590847 Rises=F Damp=T
 DIIS: error= 7.59D-03 at cycle   2 NSaved=   2.
 NSaved= 2 IEnMin= 2 EnMin= -307.472573661506     IErMin= 2 ErrMin= 7.59D-03
 ErrMax= 7.59D-03  0.00D+00 EMaxC= 1.00D-01 BMatC= 1.19D-02 BMatP= 2.23D-01
 IDIUse=3 WtCom= 9.24D-01 WtEn= 7.59D-02
 Coeff-Com:  0.683D-01 0.932D+00
 Coeff-En:   0.154D+00 0.846D+00
 Coeff:      0.748D-01 0.925D+00
 Gap=     0.261 Goal=   None    Shift=    0.000
 RMSDP=1.46D-03 MaxDP=9.55D-02 DE=-8.74D-02 OVMax= 1.23D-01

 Cycle   3  Pass 0  IDiag  1:
 RMSU=  1.10D-03    CP:  9.67D-01  6.52D-01
 E= -307.587930997767     Delta-E=       -0.115357336261 Rises=F Damp=F
 DIIS: error= 7.85D-03 at cycle   3 NSaved=   3.
 NSaved= 3 IEnMin= 3 EnMin= -307.587930997767     IErMin= 2 ErrMin= 7.59D-03
 ErrMax= 7.85D-03  0.00D+00 EMaxC= 1.00D-01 BMatC= 5.03D-03 BMatP= 1.19D-02
 IDIUse=3 WtCom= 9.22D-01 WtEn= 7.85D-02
 Coeff-Com: -0.229D-01 0.366D+00 0.657D+00
 Coeff-En:   0.000D+00 0.000D+00 0.100D+01
 Coeff:     -0.211D-01 0.337D+00 0.684D+00
 Gap=     0.217 Goal=   None    Shift=    0.000
 RMSDP=3.28D-04 MaxDP=9.71D-03 DE=-1.15D-01 OVMax= 4.74D-02

 Cycle   4  Pass 0  IDiag  1:
 RMSU=  3.19D-04    CP:  9.66D-01  6.47D-01  9.30D-01
 E= -307.590129738888     Delta-E=       -0.002198741121 Rises=F Damp=F
 DIIS: error= 7.13D-03 at cycle   4 NSaved=   4.
 NSaved= 4 IEnMin= 4 EnMin= -307.590129738888     IErMin= 4 ErrMin= 7.13D-03
 ErrMax= 7.13D-03  0.00D+00 EMaxC= 1.00D-01 BMatC= 2.56D-03 BMatP= 5.03D-03
 IDIUse=3 WtCom= 9.29D-01 WtEn= 7.13D-02
 Coeff-Com: -0.217D-01 0.131D+00 0.446D+00 0.445D+00
 Coeff-En:   0.000D+00 0.000D+00 0.376D+00 0.624D+00
 Coeff:     -0.202D-01 0.121D+00 0.441D+00 0.458D+00
 Gap=     0.215 Goal=   None    Shift=    0.000
 RMSDP=2.13D-04 MaxDP=7.28D-03 DE=-2.20D-03 OVMax= 2.70D-02

 Cycle   5  Pass 0  IDiag  1:
 RMSU=  8.28D-05    CP:  9.67D-01  6.81D-01  9.51D-01  4.60D-01
 E= -307.592891873944     Delta-E=       -0.002762135056 Rises=F Damp=F
 DIIS: error= 1.13D-03 at cycle   5 NSaved=   5.
 NSaved= 5 IEnMin= 5 EnMin= -307.592891873944     IErMin= 5 ErrMin= 1.13D-03
 ErrMax= 1.13D-03  0.00D+00 EMaxC= 1.00D-01 BMatC= 8.89D-05 BMatP= 2.56D-03
 IDIUse=3 WtCom= 9.89D-01 WtEn= 1.13D-02
 Coeff-Com: -0.600D-02 0.136D-01 0.115D+00 0.212D+00 0.666D+00
 Coeff-En:   0.000D+00 0.000D+00 0.000D+00 0.000D+00 0.100D+01
 Coeff:     -0.594D-02 0.135D-01 0.114D+00 0.209D+00 0.670D+00
 Gap=     0.216 Goal=   None    Shift=    0.000
 RMSDP=5.02D-05 MaxDP=2.75D-03 DE=-2.76D-03 OVMax= 4.86D-03

 Cycle   6  Pass 0  IDiag  1:
 RMSU=  2.26D-05    CP:  9.66D-01  6.71D-01  9.62D-01  5.39D-01  7.13D-01
 E= -307.592981941135     Delta-E=       -0.000090067191 Rises=F Damp=F
 DIIS: error= 1.81D-04 at cycle   6 NSaved=   6.
 NSaved= 6 IEnMin= 6 EnMin= -307.592981941135     IErMin= 6 ErrMin= 1.81D-04
 ErrMax= 1.81D-04  0.00D+00 EMaxC= 1.00D-01 BMatC= 6.64D-06 BMatP= 8.89D-05
 IDIUse=3 WtCom= 9.98D-01 WtEn= 1.81D-03
 Coeff-Com: -0.293D-02 0.480D-02 0.554D-01 0.109D+00 0.385D+00 0.449D+00
 Coeff-En:   0.000D+00 0.000D+00 0.000D+00 0.000D+00 0.000D+00 0.100D+01
 Coeff:     -0.293D-02 0.479D-02 0.553D-01 0.108D+00 0.384D+00 0.450D+00
 Gap=     0.216 Goal=   None    Shift=    0.000
 RMSDP=1.72D-05 MaxDP=1.10D-03 DE=-9.01D-05 OVMax= 1.04D-03

 Cycle   7  Pass 0  IDiag  1:
 RMSU=  8.31D-06    CP:  9.66D-01  6.75D-01  9.61D-01  5.26D-01  7.61D-01
                    CP:  6.10D-01
 E= -307.592987435761     Delta-E=       -0.000005494625 Rises=F Damp=F
 DIIS: error= 4.60D-05 at cycle   7 NSaved=   7.
 NSaved= 7 IEnMin= 7 EnMin= -307.592987435761     IErMin= 7 ErrMin= 4.60D-05
 ErrMax= 4.60D-05  0.00D+00 EMaxC= 1.00D-01 BMatC= 3.53D-07 BMatP= 6.64D-06
 IDIUse=1 WtCom= 1.00D+00 WtEn= 0.00D+00
 Coeff-Com: -0.334D-03-0.269D-03 0.845D-02 0.189D-01 0.826D-01 0.210D+00
 Coeff-Com:  0.681D+00
 Coeff:     -0.334D-03-0.269D-03 0.845D-02 0.189D-01 0.826D-01 0.210D+00
 Coeff:      0.681D+00
 Gap=     0.216 Goal=   None    Shift=    0.000
 RMSDP=3.64D-06 MaxDP=1.83D-04 DE=-5.49D-06 OVMax= 1.66D-04

 Initial convergence to 1.0D-05 achieved.  Increase integral accuracy.
 Cycle   8  Pass 1  IDiag  1:
 E= -307.592983624598     Delta-E=        0.000003811163 Rises=F Damp=F
 DIIS: error= 6.49D-05 at cycle   1 NSaved=   1.
 NSaved= 1 IEnMin= 1 EnMin= -307.592983624598     IErMin= 1 ErrMin= 6.49D-05
 ErrMax= 6.49D-05  0.00D+00 EMaxC= 1.00D-01 BMatC= 3.02D-07 BMatP= 3.02D-07
 IDIUse=1 WtCom= 1.00D+00 WtEn= 0.00D+00
 Coeff-Com:  0.100D+01
 Coeff:      0.100D+01
 Gap=     0.216 Goal=   None    Shift=    0.000
 RMSDP=3.64D-06 MaxDP=1.83D-04 DE= 3.81D-06 OVMax= 1.55D-04

 Cycle   9  Pass 1  IDiag  1:
 RMSU=  3.06D-05    CP:  1.00D+00
 E= -307.592983647371     Delta-E=       -0.000000022774 Rises=F Damp=F
 DIIS: error= 2.61D-05 at cycle   2 NSaved=   2.
 NSaved= 2 IEnMin= 2 EnMin= -307.592983647371     IErMin= 2 ErrMin= 2.61D-05
 ErrMax= 2.61D-05  0.00D+00 EMaxC= 1.00D-01 BMatC= 7.47D-08 BMatP= 3.02D-07
 IDIUse=1 WtCom= 1.00D+00 WtEn= 0.00D+00
 Coeff-Com:  0.252D+00 0.748D+00
 Coeff:      0.252D+00 0.748D+00
 Gap=     0.216 Goal=   None    Shift=    0.000
 RMSDP=2.34D-06 MaxDP=1.23D-04 DE=-2.28D-08 OVMax= 2.19D-04

 Cycle  10  Pass 1  IDiag  1:
 RMSU=  2.20D-06    CP:  1.00D+00  1.02D+00
 E= -307.592983622291     Delta-E=        0.000000025081 Rises=F Damp=F
 DIIS: error= 3.21D-05 at cycle   3 NSaved=   3.
 NSaved= 3 IEnMin= 2 EnMin= -307.592983647371     IErMin= 2 ErrMin= 2.61D-05
 ErrMax= 3.21D-05  0.00D+00 EMaxC= 1.00D-01 BMatC= 9.69D-08 BMatP= 7.47D-08
 IDIUse=1 WtCom= 1.00D+00 WtEn= 0.00D+00
 Coeff-Com:  0.313D-02 0.532D+00 0.465D+00
 Coeff:      0.313D-02 0.532D+00 0.465D+00
 Gap=     0.216 Goal=   None    Shift=    0.000
 RMSDP=1.23D-06 MaxDP=6.62D-05 DE= 2.51D-08 OVMax= 1.35D-04

 Cycle  11  Pass 1  IDiag  1:
 RMSU=  2.31D-07    CP:  1.00D+00  1.02D+00  4.59D-01
 E= -307.592983722428     Delta-E=       -0.000000100137 Rises=F Damp=F
 DIIS: error= 2.49D-06 at cycle   4 NSaved=   4.
 NSaved= 4 IEnMin= 4 EnMin= -307.592983722428     IErMin= 4 ErrMin= 2.49D-06
 ErrMax= 2.49D-06  0.00D+00 EMaxC= 1.00D-01 BMatC= 1.34D-09 BMatP= 7.47D-08
 IDIUse=1 WtCom= 1.00D+00 WtEn= 0.00D+00
 Coeff-Com: -0.146D-02 0.312D+00 0.281D+00 0.408D+00
 Coeff:     -0.146D-02 0.312D+00 0.281D+00 0.408D+00
 Gap=     0.216 Goal=   None    Shift=    0.000
 RMSDP=1.13D-07 MaxDP=4.16D-06 DE=-1.00D-07 OVMax= 1.46D-05

 Cycle  12  Pass 1  IDiag  1:
 RMSU=  7.28D-08    CP:  1.00D+00  1.02D+00  4.84D-01  7.32D-01
 E= -307.592983723771     Delta-E=       -0.000000001343 Rises=F Damp=F
 DIIS: error= 2.21D-07 at cycle   5 NSaved=   5.
 NSaved= 5 IEnMin= 5 EnMin= -307.592983723771     IErMin= 5 ErrMin= 2.21D-07
 ErrMax= 2.21D-07  0.00D+00 EMaxC= 1.00D-01 BMatC= 1.04D-11 BMatP= 1.34D-09
 IDIUse=1 WtCom= 1.00D+00 WtEn= 0.00D+00
 Coeff-Com: -0.702D-03 0.106D+00 0.966D-01 0.164D+00 0.634D+00
 Coeff:     -0.702D-03 0.106D+00 0.966D-01 0.164D+00 0.634D+00
 Gap=     0.216 Goal=   None    Shift=    0.000
 RMSDP=2.07D-08 MaxDP=8.53D-07 DE=-1.34D-09 OVMax= 1.10D-06

 Cycle  13  Pass 1  IDiag  1:
 RMSU=  1.80D-08    CP:  1.00D+00  1.02D+00  4.87D-01  7.38D-01  9.46D-01
 E= -307.592983723777     Delta-E=       -0.000000000006 Rises=F Damp=F
 DIIS: error= 1.38D-07 at cycle   6 NSaved=   6.
 NSaved= 6 IEnMin= 6 EnMin= -307.592983723777     IErMin= 6 ErrMin= 1.38D-07
 ErrMax= 1.38D-07  0.00D+00 EMaxC= 1.00D-01 BMatC= 1.31D-12 BMatP= 1.04D-11
 IDIUse=1 WtCom= 1.00D+00 WtEn= 0.00D+00
 Coeff-Com: -0.315D-03 0.440D-01 0.401D-01 0.715D-01 0.350D+00 0.495D+00
 Coeff:     -0.315D-03 0.440D-01 0.401D-01 0.715D-01 0.350D+00 0.495D+00
 Gap=     0.216 Goal=   None    Shift=    0.000
 RMSDP=4.14D-09 MaxDP=9.99D-08 DE=-6.14D-12 OVMax= 6.19D-07

 SCF Done:  E(RB3LYP) =  -307.592983724     A.U. after   13 cycles
            NFock= 13  Conv=0.41D-08     -V/T= 2.0050
 KE= 3.060730349105D+02 PE=-1.260006240553D+03 EE= 3.746185959347D+02
 Leave Link  502 at Tue Jan 14 14:16:30 2025, MaxMem=   104857600 cpu:              74.3 elap:              74.4
 (Enter /sw/cluster/pub/apps//g16/l601.exe)
 Copying SCF densities to generalized density rwf, IOpCl= 0 IROHF=0.

 **********************************************************************

            Population analysis using the SCF density.

 **********************************************************************

 Alpha  occ. eigenvalues --  -19.16121 -10.23896 -10.18016 -10.17832 -10.17782
 Alpha  occ. eigenvalues --  -10.17204 -10.17004  -1.06742  -0.85666  -0.75451
 Alpha  occ. eigenvalues --   -0.74343  -0.63053  -0.60794  -0.55151  -0.50431
 Alpha  occ. eigenvalues --   -0.47259  -0.44409  -0.42927  -0.41771  -0.39699
 Alpha  occ. eigenvalues --   -0.36730  -0.34640  -0.34530  -0.26192  -0.23258
 Alpha virt. eigenvalues --   -0.01702  -0.00047   0.02422   0.04921   0.07759
 Alpha virt. eigenvalues --    0.09038   0.11082   0.12239   0.13627   0.14350
 Alpha virt. eigenvalues --    0.18680   0.19581   0.20685   0.21520   0.22855
 Alpha virt. eigenvalues --    0.23716   0.24473   0.24906   0.25607   0.27379
 Alpha virt. eigenvalues --    0.31609   0.32299   0.32857   0.32997   0.34646
 Alpha virt. eigenvalues --    0.35303   0.36927   0.39011   0.39892   0.41204
 Alpha virt. eigenvalues --    0.42640   0.42912   0.44531   0.45206   0.46837
 Alpha virt. eigenvalues --    0.47645   0.48810   0.48970   0.49772   0.50867
 Alpha virt. eigenvalues --    0.55611   0.57610   0.62626   0.63929   0.64562
 Alpha virt. eigenvalues --    0.66718   0.68542   0.70985   0.72595   0.74350
 Alpha virt. eigenvalues --    0.75480   0.76820   0.80851   0.82605   0.83611
 Alpha virt. eigenvalues --    0.86253   0.87167   0.87515   0.89885   0.99499
 Alpha virt. eigenvalues --    1.00238   1.02199   1.03585   1.06570   1.07419
 Alpha virt. eigenvalues --    1.13996   1.15233   1.17427   1.18023   1.19922
 Alpha virt. eigenvalues --    1.21809   1.22592   1.25909   1.28558   1.32379
 Alpha virt. eigenvalues --    1.32790   1.37047   1.38057   1.40168   1.45048
 Alpha virt. eigenvalues --    1.45391   1.47997   1.48765   1.49801   1.55635
 Alpha virt. eigenvalues --    1.58729   1.60284   1.62010   1.65512   1.67059
 Alpha virt. eigenvalues --    1.67536   1.69469   1.69763   1.72570   1.74245
 Alpha virt. eigenvalues --    1.76746   1.83391   1.84186   1.88336   1.90403
 Alpha virt. eigenvalues --    1.91694   2.00554   2.01687   2.02838   2.06594
 Alpha virt. eigenvalues --    2.08034   2.12193   2.13667   2.13788   2.18057
 Alpha virt. eigenvalues --    2.20752   2.23204   2.25041   2.30079   2.34737
 Alpha virt. eigenvalues --    2.39611   2.42794   2.47388   2.50757   2.52701
 Alpha virt. eigenvalues --    2.56253   2.57436   2.58424   2.61663   2.63515
 Alpha virt. eigenvalues --    2.65802   2.66721   2.67611   2.67620   2.71116
 Alpha virt. eigenvalues --    2.71216   2.75570   2.75645   2.75985   2.79124
 Alpha virt. eigenvalues --    2.81697   2.82595   2.83903   2.86787   2.86813
 Alpha virt. eigenvalues --    2.89615   2.90884   2.93644   3.00721   3.02136
 Alpha virt. eigenvalues --    3.03033   3.08627   3.08961   3.11118   3.13013
 Alpha virt. eigenvalues --    3.13753   3.15343   3.19615   3.19712   3.21715
 Alpha virt. eigenvalues --    3.23297   3.23316   3.25008   3.29499   3.30374
 Alpha virt. eigenvalues --    3.35039   3.37049   3.38737   3.41217   3.42976
 Alpha virt. eigenvalues --    3.43826   3.46829   3.48367   3.50183   3.50996
 Alpha virt. eigenvalues --    3.52524   3.59694   3.63839   3.67945   3.74466
 Alpha virt. eigenvalues --    3.76055   3.77023   3.82094   3.91356   3.94055
 Alpha virt. eigenvalues --    3.99712   4.03158   4.05514   4.08046   4.08294
 Alpha virt. eigenvalues --    4.17078   4.18925   4.20267   4.20672   4.22444
 Alpha virt. eigenvalues --    4.25938   4.28164   4.29302   4.35332   4.47990
 Alpha virt. eigenvalues --    4.59053   4.63150   4.65567   4.68210   4.77399
 Alpha virt. eigenvalues --    4.83296   4.85458   4.86708   5.11272   5.15929
 Alpha virt. eigenvalues --    5.21788   5.25115   5.28062   5.37458   5.47220
 Alpha virt. eigenvalues --    5.47958   5.59335   5.77322   5.98133   6.29704
 Alpha virt. eigenvalues --    6.37452   6.40190   6.69707   6.78030   6.96348
 Alpha virt. eigenvalues --    7.25603  21.96511  22.56538  22.57991  22.67261
 Alpha virt. eigenvalues --   22.77950  23.19447  43.88385
          Condensed to atoms (all electrons):
               1          2          3          4          5          6
     1  C    4.909978   0.475281   0.006198  -0.066894  -0.029787   0.490596
     2  C    0.475281   5.021291   0.285586   0.049654  -0.058537  -0.009869
     3  C    0.006198   0.285586   5.310788   0.396744  -0.024456  -0.069473
     4  C   -0.066894   0.049654   0.396744   4.631701   0.502410  -0.015738
     5  C   -0.029787  -0.058537  -0.024456   0.502410   4.950934   0.509775
     6  C    0.490596  -0.009869  -0.069473  -0.015738   0.509775   4.846328
     7  H    0.422928  -0.049940   0.011403  -0.001825   0.008607  -0.048845
     8  H   -0.039362   0.402138  -0.030653   0.003385   0.000177   0.006417
     9  H    0.005839  -0.024305   0.413442  -0.059370   0.005927  -0.000059
    10  O    0.000660   0.012564  -0.098362   0.368384  -0.049973  -0.000973
    11  H    0.012295  -0.005852   0.016638  -0.053558   0.422001  -0.052227
    12  H   -0.054262   0.011759  -0.003717   0.013077  -0.056857   0.430005
    13  H   -0.001030   0.007713  -0.018159  -0.040829   0.004955   0.000291
               7          8          9         10         11         12
     1  C    0.422928  -0.039362   0.005839   0.000660   0.012295  -0.054262
     2  C   -0.049940   0.402138  -0.024305   0.012564  -0.005852   0.011759
     3  C    0.011403  -0.030653   0.413442  -0.098362   0.016638  -0.003717
     4  C   -0.001825   0.003385  -0.059370   0.368384  -0.053558   0.013077
     5  C    0.008607   0.000177   0.005927  -0.049973   0.422001  -0.056857
     6  C   -0.048845   0.006417  -0.000059  -0.000973  -0.052227   0.430005
     7  H    0.564606  -0.006187  -0.000300   0.000021  -0.000176  -0.006964
     8  H   -0.006187   0.560795  -0.006444  -0.000195   0.000094  -0.000345
     9  H   -0.000300  -0.006444   0.569101  -0.004735  -0.000286   0.000072
    10  O    0.000021  -0.000195  -0.004735   7.867175   0.005889  -0.000154
    11  H   -0.000176   0.000094  -0.000286   0.005889   0.552620  -0.008747
    12  H   -0.006964  -0.000345   0.000072  -0.000154  -0.008747   0.567023
    13  H   -0.000013  -0.000050   0.003470   0.299599  -0.001308   0.000049
              13
     1  C   -0.001030
     2  C    0.007713
     3  C   -0.018159
     4  C   -0.040829
     5  C    0.004955
     6  C    0.000291
     7  H   -0.000013
     8  H   -0.000050
     9  H    0.003470
    10  O    0.299599
    11  H   -0.001308
    12  H    0.000049
    13  H    0.437201
 Mulliken charges:
               1
     1  C   -0.132442
     2  C   -0.117483
     3  C   -0.195978
     4  C    0.272858
     5  C   -0.185174
     6  C   -0.086229
     7  H    0.106684
     8  H    0.110229
     9  H    0.097649
    10  O   -0.399901
    11  H    0.112616
    12  H    0.109060
    13  H    0.308112
 Sum of Mulliken charges =  -0.00000
 Mulliken charges with hydrogens summed into heavy atoms:
               1
     1  C   -0.025759
     2  C   -0.007254
     3  C   -0.098329
     4  C    0.272858
     5  C   -0.072558
     6  C    0.022831
    10  O   -0.091790
 Electronic spatial extent (au):  <R**2>=            663.8680
 Charge=             -0.0000 electrons
 Dipole moment (field-independent basis, Debye):
    X=             -1.3214    Y=              0.0172    Z=             -0.0000  Tot=              1.3215
 Quadrupole moment (field-independent basis, Debye-Ang):
   XX=            -35.8158   YY=            -37.9341   ZZ=            -45.0528
   XY=             -4.3199   XZ=              0.0000   YZ=              0.0000
 Traceless Quadrupole moment (field-independent basis, Debye-Ang):
   XX=              3.7851   YY=              1.6668   ZZ=             -5.4519
   XY=             -4.3199   XZ=              0.0000   YZ=              0.0000
 Octapole moment (field-independent basis, Debye-Ang**2):
  XXX=             -0.6627  YYY=              8.4294  ZZZ=             -0.0000  XYY=            -12.5783
  XXY=              5.7936  XXZ=             -0.0000  XZZ=             -0.1270  YZZ=              5.8547
  YYZ=             -0.0000  XYZ=             -0.0000
 Hexadecapole moment (field-independent basis, Debye-Ang**3):
 XXXX=           -277.8951 YYYY=           -487.3912 ZZZZ=            -51.5327 XXXY=             -0.6825
 XXXZ=              0.0000 YYYX=            -33.6029 YYYZ=              0.0000 ZZZX=              0.0000
 ZZZY=              0.0000 XXYY=           -118.9814 XXZZ=            -65.7418 YYZZ=           -104.3790
 XXYZ=              0.0000 YYXZ=              0.0000 ZZXY=              0.4556
 N-N= 2.717216259842D+02 E-N=-1.260006236718D+03  KE= 3.060730349105D+02
 No NMR shielding tensors so no spin-rotation constants.
 Leave Link  601 at Tue Jan 14 14:16:30 2025, MaxMem=   104857600 cpu:               0.1 elap:               0.1
 (Enter /sw/cluster/pub/apps//g16/l9999.exe)
 1\1\GINC-N02\SP\RB3LYP\def2TZVP\C6H6O1\UNKNOWN\14-Jan-2025\0\\#P B3LYP
 /def2tzvp nosymm Density=Current\\Single-Point\\0,1\C,0,0.02168082,-1.
 85087446,0.\C,0,-1.18373444,-1.15997402,0.\C,0,-1.2004791,0.23039486,0
 .\C,0,0.,0.93680239,0.\C,0,1.2129386,0.25180476,0.\C,0,1.21625605,-1.1
 3581879,0.\H,0,0.03157977,-2.93274138,0.\H,0,-2.12123943,-1.70188591,0
 .\H,0,-2.14414699,0.7657375,0.\O,0,0.04801839,2.30273909,0.\H,0,2.1352
 1714,0.81760803,0.\H,0,2.16214984,-1.66306458,0.\H,0,-0.8476791,2.6584
 2521,0.\\Version=ES64L-G16RevA.03\HF=-307.5929837\RMSD=4.145e-09\Dipol
 e=-0.5198659,0.0067862,0.\Quadrupole=2.8141155,1.2392295,-4.053345,-3.
 2117344,0.,0.\PG=CS [SG(C6H6O1)]\\@


 ONLY A FOOL KNOWS EVERYTHING.

               -- THE CHEMIST ANALYST, SEPTEMBER 1946
 Job cpu time:       0 days  0 hours  1 minutes 16.5 seconds.
 Elapsed time:       0 days  0 hours  1 minutes 16.6 seconds.
 File lengths (MBytes):  RWF=     40 Int=      0 D2E=      0 Chk=      5 Scr=      1
 Normal termination of Gaussian 16 at Tue Jan 14 14:16:30 2025.
