 Entering Gaussian System, Link 0=g16
 Initial command:
 /sw/cluster/pub/apps//g16/l1.exe "/data/mmaximo/28133/Gau-1056181.inp" -scrdir="/data/mmaximo/28133/"
 Entering Link 1 = /sw/cluster/pub/apps//g16/l1.exe PID=   1056182.
  
 Copyright (c) 1988,1990,1992,1993,1995,1998,2003,2009,2016,
            Gaussian, Inc.  All Rights Reserved.
  
 This is part of the Gaussian(R) 16 program.  It is based on
 the Gaussian(R) 09 system (copyright 2009, Gaussian, Inc.),
 the Gaussian(R) 03 system (copyright 2003, Gaussian, Inc.),
 the Gaussian(R) 98 system (copyright 1998, Gaussian, Inc.),
 the Gaussian(R) 94 system (copyright 1995, Gaussian, Inc.),
 the Gaussian 92(TM) system (copyright 1992, Gaussian, Inc.),
 the Gaussian 90(TM) system (copyright 1990, Gaussian, Inc.),
 the Gaussian 88(TM) system (copyright 1988, Gaussian, Inc.),
 the Gaussian 86(TM) system (copyright 1986, Carnegie Mellon
 University), and the Gaussian 82(TM) system (copyright 1983,
 Carnegie Mellon University). Gaussian is a federally registered
 trademark of Gaussian, Inc.
  
 This software contains proprietary and confidential information,
 including trade secrets, belonging to Gaussian, Inc.
  
 This software is provided under written license and may be
 used, copied, transmitted, or stored only in accord with that
 written license.
  
 The following legend is applicable only to US Government
 contracts under FAR:
  
                    RESTRICTED RIGHTS LEGEND
  
 Use, reproduction and disclosure by the US Government is
 subject to restrictions as set forth in subparagraphs (a)
 and (c) of the Commercial Computer Software - Restricted
 Rights clause in FAR 52.227-19.
  
 Gaussian, Inc.
 340 Quinnipiac St., Bldg. 40, Wallingford CT 06492
  
  
 ---------------------------------------------------------------
 Warning -- This program may not be used in any manner that
 competes with the business of Gaussian, Inc. or will provide
 assistance to any competitor of Gaussian, Inc.  The licensee
 of this program is prohibited from giving any competitor of
 Gaussian, Inc. access to this program.  By using this program,
 the user acknowledges that Gaussian, Inc. is engaged in the
 business of creating and licensing software in the field of
 computational chemistry and represents and warrants to the
 licensee that it is not a competitor of Gaussian, Inc. and that
 it will not use this program in any manner prohibited above.
 ---------------------------------------------------------------
  

 Cite this work as:
 Gaussian 16, Revision A.03,
 M. J. Frisch, G. W. Trucks, H. B. Schlegel, G. E. Scuseria, 
 M. A. Robb, J. R. Cheeseman, G. Scalmani, V. Barone, 
 G. A. Petersson, H. Nakatsuji, X. Li, M. Caricato, A. V. Marenich, 
 J. Bloino, B. G. Janesko, R. Gomperts, B. Mennucci, H. P. Hratchian, 
 J. V. Ortiz, A. F. Izmaylov, J. L. Sonnenberg, D. Williams-Young, 
 F. Ding, F. Lipparini, F. Egidi, J. Goings, B. Peng, A. Petrone, 
 T. Henderson, D. Ranasinghe, V. G. Zakrzewski, J. Gao, N. Rega, 
 G. Zheng, W. Liang, M. Hada, M. Ehara, K. Toyota, R. Fukuda, 
 J. Hasegawa, M. Ishida, T. Nakajima, Y. Honda, O. Kitao, H. Nakai, 
 T. Vreven, K. Throssell, J. A. Montgomery, Jr., J. E. Peralta, 
 F. Ogliaro, M. J. Bearpark, J. J. Heyd, E. N. Brothers, K. N. Kudin, 
 V. N. Staroverov, T. A. Keith, R. Kobayashi, J. Normand, 
 K. Raghavachari, A. P. Rendell, J. C. Burant, S. S. Iyengar, 
 J. Tomasi, M. Cossi, J. M. Millam, M. Klene, C. Adamo, R. Cammi, 
 J. W. Ochterski, R. L. Martin, K. Morokuma, O. Farkas, 
 J. B. Foresman, and D. J. Fox, Gaussian, Inc., Wallingford CT, 2016.
 
 ******************************************
 Gaussian 16:  ES64L-G16RevA.03 25-Dec-2016
                23-Jan-2025 
 ******************************************
 %chk=C6H5NH-.chk
 -------------------------
 # opt freq b3lyp def2tzvp
 -------------------------
 1/18=20,19=15,26=3,38=1/1,3;
 2/9=110,12=2,17=6,18=5,40=1/2;
 3/5=44,7=101,11=2,25=1,30=1,71=1,74=-5/1,2,3;
 4//1;
 5/5=2,38=5/2;
 6/7=2,8=2,9=2,10=2,28=1/1;
 7//1,2,3,16;
 1/18=20,19=15,26=3/3(2);
 2/9=110/2;
 99//99;
 2/9=110/2;
 3/5=44,7=101,11=2,25=1,30=1,71=1,74=-5/1,2,3;
 4/5=5,16=3,69=1/1;
 5/5=2,38=5/2;
 7//1,2,3,16;
 1/18=20,19=15,26=3/3(-5);
 2/9=110/2;
 6/7=2,8=2,9=2,10=2,19=2,28=1/1;
 99/9=1/99;
 ---
 opt
 ---
 Symbolic Z-matrix:
 Charge = -1 Multiplicity = 1
 C                    -0.01265  -1.76457   0.053 
 C                     1.2365   -1.09917   0.01832 
 C                     1.31303   0.25392  -0.02513 
 C                     0.01898   1.06268  -0.03637 
 C                    -1.29282   0.28395   0.00257 
 C                    -1.24659  -1.07055   0.04471 
 H                     2.13804  -1.67541   0.02655 
 H                     2.26309   0.74545  -0.05105 
 N                     0.03345   2.35555  -0.07725 
 H                    -2.23165   0.79724  -0.00327 
 H                    -2.16079  -1.62587   0.07225 
 H                    -0.82688   2.86525  -0.08384 
 C                    -0.02987  -3.3037    0.10166 
 O                     1.05277  -3.94511   0.10996 
 O                    -1.27613  -4.00403   0.13742 
 H                    -1.1757   -4.85795  -0.28959 
 

 GradGradGradGradGradGradGradGradGradGradGradGradGradGradGradGradGradGrad
 Berny optimization.
 Initialization pass.
                           ----------------------------
                           !    Initial Parameters    !
                           ! (Angstroms and Degrees)  !
 --------------------------                            --------------------------
 ! Name  Definition              Value          Derivative Info.                !
 --------------------------------------------------------------------------------
 ! R1    R(1,2)                  1.4157         estimate D2E/DX2                !
 ! R2    R(1,6)                  1.4157         estimate D2E/DX2                !
 ! R3    R(1,13)                 1.54           estimate D2E/DX2                !
 ! R4    R(2,3)                  1.3559         estimate D2E/DX2                !
 ! R5    R(2,7)                  1.07           estimate D2E/DX2                !
 ! R6    R(3,4)                  1.526          estimate D2E/DX2                !
 ! R7    R(3,8)                  1.07           estimate D2E/DX2                !
 ! R8    R(4,5)                  1.526          estimate D2E/DX2                !
 ! R9    R(4,9)                  1.2936         estimate D2E/DX2                !
 ! R10   R(5,6)                  1.3559         estimate D2E/DX2                !
 ! R11   R(5,10)                 1.07           estimate D2E/DX2                !
 ! R12   R(6,11)                 1.07           estimate D2E/DX2                !
 ! R13   R(9,12)                 1.0            estimate D2E/DX2                !
 ! R14   R(13,14)                1.2584         estimate D2E/DX2                !
 ! R15   R(13,15)                1.43           estimate D2E/DX2                !
 ! R16   R(15,16)                0.96           estimate D2E/DX2                !
 ! A1    A(2,1,6)              122.5798         estimate D2E/DX2                !
 ! A2    A(2,1,13)             118.7101         estimate D2E/DX2                !
 ! A3    A(6,1,13)             118.7101         estimate D2E/DX2                !
 ! A4    A(1,2,3)              121.3051         estimate D2E/DX2                !
 ! A5    A(1,2,7)              119.3475         estimate D2E/DX2                !
 ! A6    A(3,2,7)              119.3475         estimate D2E/DX2                !
 ! A7    A(2,3,4)              118.7662         estimate D2E/DX2                !
 ! A8    A(2,3,8)              120.6169         estimate D2E/DX2                !
 ! A9    A(4,3,8)              120.6169         estimate D2E/DX2                !
 ! A10   A(3,4,5)              117.2777         estimate D2E/DX2                !
 ! A11   A(3,4,9)              121.3612         estimate D2E/DX2                !
 ! A12   A(5,4,9)              121.3612         estimate D2E/DX2                !
 ! A13   A(4,5,6)              118.7662         estimate D2E/DX2                !
 ! A14   A(4,5,10)             120.6169         estimate D2E/DX2                !
 ! A15   A(6,5,10)             120.6169         estimate D2E/DX2                !
 ! A16   A(1,6,5)              121.3051         estimate D2E/DX2                !
 ! A17   A(1,6,11)             119.3475         estimate D2E/DX2                !
 ! A18   A(5,6,11)             119.3475         estimate D2E/DX2                !
 ! A19   A(4,9,12)             120.0            estimate D2E/DX2                !
 ! A20   A(1,13,14)            120.0            estimate D2E/DX2                !
 ! A21   A(1,13,15)            120.0            estimate D2E/DX2                !
 ! A22   A(14,13,15)           120.0            estimate D2E/DX2                !
 ! A23   A(13,15,16)           109.4712         estimate D2E/DX2                !
 ! D1    D(6,1,2,3)              0.0002         estimate D2E/DX2                !
 ! D2    D(6,1,2,7)           -179.9999         estimate D2E/DX2                !
 ! D3    D(13,1,2,3)          -179.9998         estimate D2E/DX2                !
 ! D4    D(13,1,2,7)             0.0            estimate D2E/DX2                !
 ! D5    D(2,1,6,5)             -0.0003         estimate D2E/DX2                !
 ! D6    D(2,1,6,11)           179.9999         estimate D2E/DX2                !
 ! D7    D(13,1,6,5)           179.9998         estimate D2E/DX2                !
 ! D8    D(13,1,6,11)            0.0            estimate D2E/DX2                !
 ! D9    D(2,1,13,14)           -0.0001         estimate D2E/DX2                !
 ! D10   D(2,1,13,15)          179.9999         estimate D2E/DX2                !
 ! D11   D(6,1,13,14)          179.9999         estimate D2E/DX2                !
 ! D12   D(6,1,13,15)           -0.0002         estimate D2E/DX2                !
 ! D13   D(1,2,3,4)             -0.0001         estimate D2E/DX2                !
 ! D14   D(1,2,3,8)            179.9999         estimate D2E/DX2                !
 ! D15   D(7,2,3,4)           -179.9999         estimate D2E/DX2                !
 ! D16   D(7,2,3,8)              0.0001         estimate D2E/DX2                !
 ! D17   D(2,3,4,5)             -0.0001         estimate D2E/DX2                !
 ! D18   D(2,3,4,9)           -179.9999         estimate D2E/DX2                !
 ! D19   D(8,3,4,5)            179.9999         estimate D2E/DX2                !
 ! D20   D(8,3,4,9)              0.0001         estimate D2E/DX2                !
 ! D21   D(3,4,5,6)              0.0001         estimate D2E/DX2                !
 ! D22   D(3,4,5,10)           179.9999         estimate D2E/DX2                !
 ! D23   D(9,4,5,6)            179.9999         estimate D2E/DX2                !
 ! D24   D(9,4,5,10)            -0.0003         estimate D2E/DX2                !
 ! D25   D(3,4,9,12)           179.9999         estimate D2E/DX2                !
 ! D26   D(5,4,9,12)             0.0001         estimate D2E/DX2                !
 ! D27   D(4,5,6,1)              0.0001         estimate D2E/DX2                !
 ! D28   D(4,5,6,11)           179.9999         estimate D2E/DX2                !
 ! D29   D(10,5,6,1)          -179.9998         estimate D2E/DX2                !
 ! D30   D(10,5,6,11)            0.0001         estimate D2E/DX2                !
 ! D31   D(1,13,15,16)         150.0            estimate D2E/DX2                !
 ! D32   D(14,13,15,16)        -30.0            estimate D2E/DX2                !
 --------------------------------------------------------------------------------
 Trust Radius=3.00D-01 FncErr=1.00D-07 GrdErr=1.00D-06 EigMax=2.50D+02 EigMin=1.00D-04
 Number of steps in this run=     81 maximum allowed number of steps=    100.
 GradGradGradGradGradGradGradGradGradGradGradGradGradGradGradGradGradGrad

                          Input orientation:                          
 ---------------------------------------------------------------------
 Center     Atomic      Atomic             Coordinates (Angstroms)
 Number     Number       Type             X           Y           Z
 ---------------------------------------------------------------------
      1          6           0       -0.012648   -1.764569    0.053005
      2          6           0        1.236500   -1.099165    0.018318
      3          6           0        1.313028    0.253917   -0.025132
      4          6           0        0.018983    1.062680   -0.036373
      5          6           0       -1.292823    0.283946    0.002568
      6          6           0       -1.246587   -1.070550    0.044712
      7          1           0        2.138039   -1.675411    0.026554
      8          1           0        2.263094    0.745447   -0.051054
      9          7           0        0.033447    2.355553   -0.077246
     10          1           0       -2.231647    0.797244   -0.003274
     11          1           0       -2.160786   -1.625871    0.072249
     12          1           0       -0.826881    2.865251   -0.083839
     13          6           0       -0.029868   -3.303704    0.101664
     14          8           0        1.052769   -3.945108    0.109961
     15          8           0       -1.276127   -4.004032    0.137421
     16          1           0       -1.175703   -4.857950   -0.289591
 ---------------------------------------------------------------------
                    Distance matrix (angstroms):
                    1          2          3          4          5
     1  C    0.000000
     2  C    1.415746   0.000000
     3  C    2.416155   1.355941   0.000000
     4  C    2.828839   2.481716   1.526033   0.000000
     5  C    2.416155   2.882831   2.606171   1.526033   0.000000
     6  C    1.415746   2.483391   2.882831   2.481716   1.355941
     7  H    2.152697   1.070000   2.098956   3.462875   3.951008
     8  H    3.389692   2.112180   1.070000   2.266470   3.586141
     9  N    4.122439   3.659446   2.461081   1.293600   2.461081
    10  H    3.389692   3.952831   3.586141   2.266470   1.070000
    11  H    2.152697   3.438296   3.951008   3.462875   2.098956
    12  H    4.702865   4.470411   3.376644   1.991733   2.624444
    13  C    1.540000   2.543742   3.804748   4.368839   3.804748
    14  O    2.427572   2.853339   4.209251   5.115473   4.837172
    15  O    2.572683   3.842620   4.986008   5.232503   4.290131
    16  H    3.322510   4.476828   5.691652   6.045267   5.151521
                    6          7          8          9         10
     6  C    0.000000
     7  H    3.438296   0.000000
     8  H    3.952831   2.425327   0.000000
     9  N    3.659446   4.548489   2.750355   0.000000
    10  H    2.112180   5.020863   4.495294   2.750355   0.000000
    11  H    1.070000   4.299353   5.020863   4.548489   2.425327
    12  H    3.960204   5.424071   3.747345   1.000000   2.501302
    13  C    2.543742   2.712342   4.655816   5.662439   4.655816
    14  O    3.681627   2.517199   4.846866   6.385327   5.769759
    15  O    2.935095   4.134162   5.926142   6.496568   4.897455
    16  H    3.802786   4.605365   6.578775   7.317224   5.760054
                   11         12         13         14         15
    11  H    0.000000
    12  H    4.687627   0.000000
    13  C    2.712342   6.222994   0.000000
    14  O    3.963233   7.067647   1.258400   0.000000
    15  O    2.538212   6.887513   1.430000   2.329803   0.000000
    16  H    3.398183   7.733812   1.970203   2.441108   0.960000
                   16
    16  H    0.000000
 Stoichiometry    C7H6NO2(1-)
 Framework group  C1[X(C7H6NO2)]
 Deg. of freedom    42
 Full point group                 C1      NOp   1
 Largest Abelian subgroup         C1      NOp   1
 Largest concise Abelian subgroup C1      NOp   1
                         Standard orientation:                         
 ---------------------------------------------------------------------
 Center     Atomic      Atomic             Coordinates (Angstroms)
 Number     Number       Type             X           Y           Z
 ---------------------------------------------------------------------
      1          6           0       -0.570925    0.055458   -0.008902
      2          6           0        0.132159    1.284238    0.001483
      3          6           0        1.487601    1.320361    0.008426
      4          6           0        2.257389    0.002714    0.004869
      5          6           0        1.439081   -1.285316   -0.006418
      6          6           0        0.085925   -1.198682   -0.012662
      7          1           0       -0.416933    2.202602    0.003899
      8          1           0        2.007789    2.255370    0.016253
      9          7           0        3.550748   -0.021405    0.011167
     10          1           0        1.924099   -2.239071   -0.009353
     11          1           0       -0.496975   -2.095936   -0.020589
     12          1           0        4.034532   -0.896589    0.008668
     13          6           0       -2.110639    0.084172   -0.016402
     14          8           0       -2.719433    1.185503   -0.013257
     15          8           0       -2.848562   -1.140679   -0.026940
     16          1           0       -3.687343   -1.012807    0.422165
 ---------------------------------------------------------------------
 Rotational constants (GHZ):           3.5412059           0.7980147           0.6515879
 Standard basis: def2TZVP (5D, 7F)
 There are   396 symmetry adapted cartesian basis functions of A   symmetry.
 There are   346 symmetry adapted basis functions of A   symmetry.
   346 basis functions,   558 primitive gaussians,   396 cartesian basis functions
    36 alpha electrons       36 beta electrons
       nuclear repulsion energy       466.2992010597 Hartrees.
 NAtoms=   16 NActive=   16 NUniq=   16 SFac= 1.00D+00 NAtFMM=   60 NAOKFM=F Big=F
 Integral buffers will be    131072 words long.
 Raffenetti 2 integral format.
 Two-electron integral symmetry is turned on.
 One-electron integrals computed using PRISM.
   1 Symmetry operations used in ECPInt.
 ECPInt:  NShTT=    9045 NPrTT=   28204 LenC2=    8602 LenP2D=   20772.
 LDataN:  DoStor=T MaxTD1= 6 Len=  172
 NBasis=   346 RedAO= T EigKep=  1.16D-05  NBF=   346
 NBsUse=   346 1.00D-06 EigRej= -1.00D+00 NBFU=   346
 ExpMin= 9.52D-02 ExpMax= 2.70D+04 ExpMxC= 9.22D+02 IAcc=3 IRadAn=         5 AccDes= 0.00D+00
 Harris functional with IExCor=  402 and IRadAn=       5 diagonalized for initial guess.
 HarFok:  IExCor=  402 AccDes= 0.00D+00 IRadAn=         5 IDoV= 1 UseB2=F ITyADJ=14
 ICtDFT=  3500011 ScaDFX=  1.000000  1.000000  1.000000  1.000000
 FoFCou: FMM=F IPFlag=           0 FMFlag=      100000 FMFlg1=           0
         NFxFlg=           0 DoJE=T BraDBF=F KetDBF=T FulRan=T
         wScrn=  0.000000 ICntrl=       500 IOpCl=  0 I1Cent=   200000004 NGrid=           0
         NMat0=    1 NMatS0=      1 NMatT0=    0 NMatD0=    1 NMtDS0=    0 NMtDT0=    0
 Petite list used in FoFCou.
 Requested convergence on RMS density matrix=1.00D-08 within 128 cycles.
 Requested convergence on MAX density matrix=1.00D-06.
 Requested convergence on             energy=1.00D-06.
 No special actions if energy rises.
 Integral accuracy reduced to 1.0D-05 until final iterations.
 Initial convergence to 1.0D-05 achieved.  Increase integral accuracy.
 SCF Done:  E(RB3LYP) =  -475.774413638     A.U. after   17 cycles
            NFock= 17  Conv=0.18D-08     -V/T= 2.0055

 **********************************************************************

            Population analysis using the SCF density.

 **********************************************************************

 Orbital symmetries:
       Occupied  (A) (A) (A) (A) (A) (A) (A) (A) (A) (A) (A) (A)
                 (A) (A) (A) (A) (A) (A) (A) (A) (A) (A) (A) (A)
                 (A) (A) (A) (A) (A) (A) (A) (A) (A) (A) (A) (A)
       Virtual   (A) (A) (A) (A) (A) (A) (A) (A) (A) (A) (A) (A)
                 (A) (A) (A) (A) (A) (A) (A) (A) (A) (A) (A) (A)
                 (A) (A) (A) (A) (A) (A) (A) (A) (A) (A) (A) (A)
                 (A) (A) (A) (A) (A) (A) (A) (A) (A) (A) (A) (A)
                 (A) (A) (A) (A) (A) (A) (A) (A) (A) (A) (A) (A)
                 (A) (A) (A) (A) (A) (A) (A) (A) (A) (A) (A) (A)
                 (A) (A) (A) (A) (A) (A) (A) (A) (A) (A) (A) (A)
                 (A) (A) (A) (A) (A) (A) (A) (A) (A) (A) (A) (A)
                 (A) (A) (A) (A) (A) (A) (A) (A) (A) (A) (A) (A)
                 (A) (A) (A) (A) (A) (A) (A) (A) (A) (A) (A) (A)
                 (A) (A) (A) (A) (A) (A) (A) (A) (A) (A) (A) (A)
                 (A) (A) (A) (A) (A) (A) (A) (A) (A) (A) (A) (A)
                 (A) (A) (A) (A) (A) (A) (A) (A) (A) (A) (A) (A)
                 (A) (A) (A) (A) (A) (A) (A) (A) (A) (A) (A) (A)
                 (A) (A) (A) (A) (A) (A) (A) (A) (A) (A) (A) (A)
                 (A) (A) (A) (A) (A) (A) (A) (A) (A) (A) (A) (A)
                 (A) (A) (A) (A) (A) (A) (A) (A) (A) (A) (A) (A)
                 (A) (A) (A) (A) (A) (A) (A) (A) (A) (A) (A) (A)
                 (A) (A) (A) (A) (A) (A) (A) (A) (A) (A) (A) (A)
                 (A) (A) (A) (A) (A) (A) (A) (A) (A) (A) (A) (A)
                 (A) (A) (A) (A) (A) (A) (A) (A) (A) (A) (A) (A)
                 (A) (A) (A) (A) (A) (A) (A) (A) (A) (A) (A) (A)
                 (A) (A) (A) (A) (A) (A) (A) (A) (A) (A) (A) (A)
                 (A) (A) (A) (A) (A) (A) (A) (A) (A) (A) (A) (A)
                 (A) (A) (A) (A) (A) (A) (A) (A) (A) (A) (A) (A)
                 (A) (A) (A) (A) (A) (A) (A) (A) (A) (A)
 The electronic state is 1-A.
 Alpha  occ. eigenvalues --  -19.02333 -18.95137 -14.10004 -10.15258 -10.05862
 Alpha  occ. eigenvalues --  -10.01980 -10.01916 -10.01804 -10.00931 -10.00747
 Alpha  occ. eigenvalues --   -0.92657  -0.84192  -0.72064  -0.66787  -0.59656
 Alpha  occ. eigenvalues --   -0.55217  -0.47407  -0.43737  -0.42572  -0.36696
 Alpha  occ. eigenvalues --   -0.34010  -0.32279  -0.29231  -0.28123  -0.27925
 Alpha  occ. eigenvalues --   -0.27387  -0.24280  -0.22181  -0.21033  -0.19080
 Alpha  occ. eigenvalues --   -0.17478  -0.13964  -0.12234  -0.11033  -0.07759
 Alpha  occ. eigenvalues --   -0.01792
 Alpha virt. eigenvalues --    0.12399   0.14912   0.14969   0.18467   0.20504
 Alpha virt. eigenvalues --    0.20640   0.21644   0.24771   0.25806   0.26688
 Alpha virt. eigenvalues --    0.29267   0.29643   0.31920   0.32451   0.34118
 Alpha virt. eigenvalues --    0.34221   0.36567   0.37625   0.38617   0.39031
 Alpha virt. eigenvalues --    0.39388   0.41832   0.42491   0.43866   0.45249
 Alpha virt. eigenvalues --    0.46202   0.46821   0.47214   0.48029   0.48246
 Alpha virt. eigenvalues --    0.48947   0.51632   0.51759   0.52847   0.54961
 Alpha virt. eigenvalues --    0.55166   0.56349   0.56984   0.57622   0.58521
 Alpha virt. eigenvalues --    0.59748   0.60471   0.61079   0.62098   0.62876
 Alpha virt. eigenvalues --    0.64389   0.65911   0.67025   0.68337   0.68798
 Alpha virt. eigenvalues --    0.71515   0.73325   0.74976   0.76030   0.76862
 Alpha virt. eigenvalues --    0.78233   0.78680   0.80602   0.82032   0.83315
 Alpha virt. eigenvalues --    0.84361   0.86692   0.87340   0.88762   0.90018
 Alpha virt. eigenvalues --    0.90731   0.92403   0.92925   0.93827   0.99090
 Alpha virt. eigenvalues --    1.00233   1.01604   1.01688   1.04738   1.05918
 Alpha virt. eigenvalues --    1.07807   1.10442   1.13258   1.16322   1.16777
 Alpha virt. eigenvalues --    1.17108   1.19811   1.25221   1.26043   1.27250
 Alpha virt. eigenvalues --    1.28462   1.31874   1.32449   1.35226   1.36256
 Alpha virt. eigenvalues --    1.39195   1.39866   1.42434   1.44147   1.45419
 Alpha virt. eigenvalues --    1.48215   1.49722   1.50734   1.52602   1.54355
 Alpha virt. eigenvalues --    1.57483   1.58943   1.62917   1.63454   1.64248
 Alpha virt. eigenvalues --    1.65371   1.66788   1.68183   1.69393   1.70329
 Alpha virt. eigenvalues --    1.72889   1.73112   1.75534   1.75659   1.78166
 Alpha virt. eigenvalues --    1.78253   1.80042   1.83357   1.85773   1.87803
 Alpha virt. eigenvalues --    1.88993   1.92629   1.96194   1.98401   1.98936
 Alpha virt. eigenvalues --    2.01289   2.04237   2.04618   2.05832   2.08344
 Alpha virt. eigenvalues --    2.10500   2.11284   2.13963   2.15736   2.16431
 Alpha virt. eigenvalues --    2.20536   2.23596   2.24216   2.26587   2.29101
 Alpha virt. eigenvalues --    2.29798   2.32853   2.34447   2.35822   2.37000
 Alpha virt. eigenvalues --    2.39370   2.40670   2.42281   2.45299   2.51128
 Alpha virt. eigenvalues --    2.52773   2.53301   2.55402   2.57984   2.63218
 Alpha virt. eigenvalues --    2.70446   2.71279   2.71713   2.72786   2.73484
 Alpha virt. eigenvalues --    2.74217   2.78358   2.79387   2.79669   2.82191
 Alpha virt. eigenvalues --    2.82676   2.83777   2.85973   2.89375   2.89780
 Alpha virt. eigenvalues --    2.92298   2.93518   2.94393   2.95509   2.95772
 Alpha virt. eigenvalues --    2.96568   3.01457   3.04474   3.05207   3.06216
 Alpha virt. eigenvalues --    3.09733   3.10236   3.13022   3.13930   3.14043
 Alpha virt. eigenvalues --    3.17635   3.19030   3.20974   3.25295   3.26632
 Alpha virt. eigenvalues --    3.27195   3.28224   3.28358   3.30487   3.30944
 Alpha virt. eigenvalues --    3.32153   3.35526   3.36333   3.38689   3.40195
 Alpha virt. eigenvalues --    3.41466   3.42039   3.42532   3.43283   3.46746
 Alpha virt. eigenvalues --    3.48887   3.50388   3.51680   3.52941   3.53652
 Alpha virt. eigenvalues --    3.54009   3.55364   3.57071   3.58758   3.59908
 Alpha virt. eigenvalues --    3.60638   3.63632   3.63964   3.66143   3.69008
 Alpha virt. eigenvalues --    3.73832   3.74714   3.77853   3.81595   3.85853
 Alpha virt. eigenvalues --    3.88413   3.89815   3.91444   3.95377   3.96875
 Alpha virt. eigenvalues --    3.99952   4.03952   4.07650   4.11064   4.12124
 Alpha virt. eigenvalues --    4.13723   4.14386   4.16168   4.27326   4.27622
 Alpha virt. eigenvalues --    4.32484   4.34857   4.37548   4.38449   4.39281
 Alpha virt. eigenvalues --    4.40509   4.40841   4.50493   4.54812   4.61943
 Alpha virt. eigenvalues --    4.63689   4.66271   4.73484   4.75370   4.78787
 Alpha virt. eigenvalues --    4.81540   4.86856   4.90556   4.90982   4.98584
 Alpha virt. eigenvalues --    4.99365   5.01072   5.04161   5.07317   5.18403
 Alpha virt. eigenvalues --    5.25298   5.30372   5.32247   5.35056   5.36308
 Alpha virt. eigenvalues --    5.37609   5.43995   5.46799   5.50067   5.53467
 Alpha virt. eigenvalues --    5.55179   5.60384   5.62957   5.65103   5.70328
 Alpha virt. eigenvalues --    5.78510   5.81230   5.91821   5.98519   5.99148
 Alpha virt. eigenvalues --    6.05146   6.15167   6.36323   6.40005   6.48644
 Alpha virt. eigenvalues --    6.57368   6.63618   6.73528   6.78285   6.90698
 Alpha virt. eigenvalues --    6.97562   7.08203   7.15950   7.24810   7.35470
 Alpha virt. eigenvalues --   22.34272  22.64529  22.90532  22.91563  22.93740
 Alpha virt. eigenvalues --   23.06310  23.36957  32.22526  43.87005  43.99702
          Condensed to atoms (all electrons):
               1          2          3          4          5          6
     1  C    5.948010   0.286316  -0.004601  -0.142420   0.103519   0.177551
     2  C    0.286316   5.268370   0.416707   0.060069  -0.085108  -0.070862
     3  C   -0.004601   0.416707   5.165665   0.333788   0.100680  -0.119916
     4  C   -0.142420   0.060069   0.333788   4.859244   0.162112   0.214415
     5  C    0.103519  -0.085108   0.100680   0.162112   6.179127  -0.284743
     6  C    0.177551  -0.070862  -0.119916   0.214415  -0.284743   5.817572
     7  H   -0.059828   0.444526  -0.085043   0.017720  -0.004886   0.011346
     8  H    0.030105  -0.114794   0.433885  -0.063977   0.036930  -0.015863
     9  N   -0.016093   0.010263  -0.083386   0.693309  -0.310467   0.096387
    10  H    0.014007  -0.000785   0.008680  -0.054720   0.437616  -0.085231
    11  H   -0.040412   0.003759   0.002247   0.001307  -0.033476   0.387816
    12  H   -0.003042   0.001654   0.003585  -0.182103  -0.049264   0.018960
    13  C    0.113553  -0.098699   0.018756  -0.008162   0.001507  -0.013746
    14  O   -0.252747   0.025726   0.004626  -0.000225  -0.000368   0.008418
    15  O   -0.183260   0.006813   0.000296   0.000204  -0.002618   0.029858
    16  H    0.028940  -0.000906   0.000005  -0.000013   0.000190  -0.006030
               7          8          9         10         11         12
     1  C   -0.059828   0.030105  -0.016093   0.014007  -0.040412  -0.003042
     2  C    0.444526  -0.114794   0.010263  -0.000785   0.003759   0.001654
     3  C   -0.085043   0.433885  -0.083386   0.008680   0.002247   0.003585
     4  C    0.017720  -0.063977   0.693309  -0.054720   0.001307  -0.182103
     5  C   -0.004886   0.036930  -0.310467   0.437616  -0.033476  -0.049264
     6  C    0.011346  -0.015863   0.096387  -0.085231   0.387816   0.018960
     7  H    0.594577  -0.017435   0.000158   0.000155  -0.000735   0.000092
     8  H   -0.017435   0.679092  -0.000383  -0.000340   0.000268  -0.004535
     9  N    0.000158  -0.000383   6.630175  -0.007357  -0.001497   0.400567
    10  H    0.000155  -0.000340  -0.007357   0.652681  -0.012058   0.004588
    11  H   -0.000735   0.000268  -0.001497  -0.012058   0.613454  -0.000291
    12  H    0.000092  -0.004535   0.400567   0.004588  -0.000291   0.664866
    13  C   -0.012069  -0.000231  -0.000527  -0.000760  -0.008831  -0.000067
    14  O    0.025571  -0.000174  -0.000002   0.000011   0.000520  -0.000000
    15  O    0.001193   0.000002  -0.000000  -0.000145   0.016420   0.000000
    16  H   -0.000220   0.000000  -0.000000  -0.000006  -0.001257  -0.000000
              13         14         15         16
     1  C    0.113553  -0.252747  -0.183260   0.028940
     2  C   -0.098699   0.025726   0.006813  -0.000906
     3  C    0.018756   0.004626   0.000296   0.000005
     4  C   -0.008162  -0.000225   0.000204  -0.000013
     5  C    0.001507  -0.000368  -0.002618   0.000190
     6  C   -0.013746   0.008418   0.029858  -0.006030
     7  H   -0.012069   0.025571   0.001193  -0.000220
     8  H   -0.000231  -0.000174   0.000002   0.000000
     9  N   -0.000527  -0.000002  -0.000000  -0.000000
    10  H   -0.000760   0.000011  -0.000145  -0.000006
    11  H   -0.008831   0.000520   0.016420  -0.001257
    12  H   -0.000067  -0.000000   0.000000  -0.000000
    13  C    4.672077   0.706422   0.388510  -0.037684
    14  O    0.706422   8.009479  -0.096522   0.008597
    15  O    0.388510  -0.096522   8.012689   0.265141
    16  H   -0.037684   0.008597   0.265141   0.462020
 Mulliken charges:
               1
     1  C    0.000400
     2  C   -0.153048
     3  C   -0.195975
     4  C    0.109450
     5  C   -0.250751
     6  C   -0.165933
     7  H    0.084878
     8  H    0.037448
     9  N   -0.411149
    10  H    0.043663
    11  H    0.072767
    12  H    0.144991
    13  C    0.279948
    14  O   -0.439333
    15  O   -0.438580
    16  H    0.281223
 Sum of Mulliken charges =  -1.00000
 Mulliken charges with hydrogens summed into heavy atoms:
               1
     1  C    0.000400
     2  C   -0.068169
     3  C   -0.158527
     4  C    0.109450
     5  C   -0.207088
     6  C   -0.093166
     9  N   -0.266158
    13  C    0.279948
    14  O   -0.439333
    15  O   -0.157358
 Electronic spatial extent (au):  <R**2>=           1657.7575
 Charge=             -1.0000 electrons
 Dipole moment (field-independent basis, Debye):
    X=             -3.0556    Y=             -2.6391    Z=              0.6726  Tot=              4.0932
 Quadrupole moment (field-independent basis, Debye-Ang):
   XX=            -95.1232   YY=            -65.3894   ZZ=            -64.1655
   XY=              1.1110   XZ=             -3.0516   YZ=             -0.7830
 Traceless Quadrupole moment (field-independent basis, Debye-Ang):
   XX=            -20.2305   YY=              9.5033   ZZ=             10.7272
   XY=              1.1110   XZ=             -3.0516   YZ=             -0.7830
 Octapole moment (field-independent basis, Debye-Ang**2):
  XXX=           -106.2096  YYY=             -2.3935  ZZZ=              0.3392  XYY=              6.6836
  XXY=            -47.2582  XXZ=             11.2754  XZZ=            -14.4695  YZZ=             -0.8081
  YYZ=              0.8216  XYZ=              3.1462
 Hexadecapole moment (field-independent basis, Debye-Ang**3):
 XXXX=          -2009.8863 YYYY=           -465.7386 ZZZZ=            -74.7519 XXXY=             -8.1424
 XXXZ=            -47.3324 YYYX=              5.6506 YYYZ=             -1.0054 ZZZX=             -1.9502
 ZZZY=             -0.7555 XXYY=           -388.0087 XXZZ=           -304.1585 YYZZ=            -98.7000
 XXYZ=            -12.8065 YYXZ=             -3.5801 ZZXY=              0.8289
 N-N= 4.662992010597D+02 E-N=-2.056437803598D+03  KE= 4.731568000305D+02
   1 Symmetry operations used in ECPInt.
 ECPInt:  NShTT=    9045 NPrTT=   28204 LenC2=    8602 LenP2D=   20772.
 LDataN:  DoStor=T MaxTD1= 7 Len=  274
 Calling FoFJK, ICntrl=      2127 FMM=F ISym2X=0 I1Cent= 0 IOpClX= 0 NMat=1 NMatS=1 NMatT=0.
 ***** Axes restored to original set *****
 -------------------------------------------------------------------
 Center     Atomic                   Forces (Hartrees/Bohr)
 Number     Number              X              Y              Z
 -------------------------------------------------------------------
      1        6          -0.023904117   -0.074781471    0.003655948
      2        6          -0.011319780    0.002970616    0.001212549
      3        6          -0.049658257    0.014638813   -0.000084307
      4        6          -0.021207103   -0.014623706    0.000937088
      5        6           0.050315464    0.004408590   -0.000658782
      6        6           0.011614581    0.005400453   -0.000453515
      7        1           0.005471090   -0.008124644    0.000286831
      8        1           0.004235269    0.009533274   -0.000532457
      9        7           0.041310104    0.010737000   -0.000927965
     10        1          -0.005419680    0.009769325   -0.000296652
     11        1          -0.006866000   -0.008063076    0.000224577
     12        1          -0.018743323   -0.008006036    0.000493153
     13        6           0.049010116    0.020678853   -0.002576876
     14        8          -0.048059429    0.008270732   -0.002852591
     15        8           0.012052313    0.031026046    0.000063587
     16        1           0.011168750   -0.003834771    0.001509410
 -------------------------------------------------------------------
 Cartesian Forces:  Max     0.074781471 RMS     0.021178129

 GradGradGradGradGradGradGradGradGradGradGradGradGradGradGradGradGradGrad
 Berny optimization.
 FormGI is forming the generalized inverse of G from B-inverse, IUseBI=4.
 Internal  Forces:  Max     0.056501475 RMS     0.014566931
 Search for a local minimum.
 Step number   1 out of a maximum of   81
 All quantities printed in internal units (Hartrees-Bohrs-Radians)
 Mixed Optimization -- RFO/linear search
 Second derivative matrix not updated -- first step.
 ITU=  0
     Eigenvalues ---    0.00237   0.00590   0.00591   0.01124   0.01295
     Eigenvalues ---    0.01407   0.01445   0.01650   0.02021   0.02049
     Eigenvalues ---    0.02300   0.02345   0.03099   0.16000   0.16000
     Eigenvalues ---    0.16000   0.16000   0.16000   0.16000   0.22000
     Eigenvalues ---    0.22903   0.24001   0.25000   0.25000   0.25000
     Eigenvalues ---    0.25000   0.28519   0.29258   0.29513   0.37230
     Eigenvalues ---    0.37230   0.37230   0.37230   0.40989   0.41451
     Eigenvalues ---    0.42370   0.47688   0.50594   0.53771   0.55473
     Eigenvalues ---    0.69002   0.80209
 RFO step:  Lambda=-4.46555290D-02 EMin= 2.36824398D-03
 Linear search not attempted -- first point.
 Maximum step size (   0.300) exceeded in Quadratic search.
    -- Step size scaled by   0.796
 Iteration  1 RMS(Cart)=  0.05115320 RMS(Int)=  0.00144014
 Iteration  2 RMS(Cart)=  0.00181921 RMS(Int)=  0.00009387
 Iteration  3 RMS(Cart)=  0.00000229 RMS(Int)=  0.00009386
 Iteration  4 RMS(Cart)=  0.00000000 RMS(Int)=  0.00009386
 Variable       Old X    -DE/DX   Delta X   Delta X   Delta X     New X
                                 (Linear)    (Quad)   (Total)
    R1        2.67537  -0.00646   0.00000  -0.01007  -0.00989   2.66548
    R2        2.67537  -0.00425   0.00000  -0.00618  -0.00604   2.66933
    R3        2.91018  -0.05650   0.00000  -0.13627  -0.13627   2.77391
    R4        2.56236   0.01244   0.00000   0.01688   0.01692   2.57927
    R5        2.02201   0.00899   0.00000   0.01715   0.01715   2.03915
    R6        2.88378  -0.03990   0.00000  -0.09390  -0.09404   2.78974
    R7        2.02201   0.00815   0.00000   0.01555   0.01555   2.03756
    R8        2.88378  -0.03340   0.00000  -0.07856  -0.07873   2.80505
    R9        2.44455   0.00300   0.00000   0.00324   0.00324   2.44779
   R10        2.56236   0.01348   0.00000   0.01860   0.01857   2.58093
   R11        2.02201   0.00944   0.00000   0.01802   0.01802   2.04002
   R12        2.02201   0.01006   0.00000   0.01919   0.01919   2.04119
   R13        1.88973   0.01204   0.00000   0.01837   0.01837   1.90809
   R14        2.37803  -0.04558   0.00000  -0.04282  -0.04282   2.33521
   R15        2.70231  -0.03351   0.00000  -0.05865  -0.05865   2.64365
   R16        1.81414   0.00391   0.00000   0.00519   0.00519   1.81932
    A1        2.13942  -0.02033   0.00000  -0.05372  -0.05339   2.08603
    A2        2.07188   0.00455   0.00000   0.01171   0.01154   2.08342
    A3        2.07188   0.01578   0.00000   0.04202   0.04185   2.11373
    A4        2.11717   0.00223   0.00000   0.00605   0.00626   2.12343
    A5        2.08301  -0.00506   0.00000  -0.01837  -0.01847   2.06453
    A6        2.08301   0.00283   0.00000   0.01232   0.01221   2.09522
    A7        2.07286   0.01461   0.00000   0.04033   0.04023   2.11309
    A8        2.10516  -0.00071   0.00000   0.00548   0.00554   2.11070
    A9        2.10516  -0.01391   0.00000  -0.04581  -0.04576   2.05940
   A10        2.04688  -0.01106   0.00000  -0.03414  -0.03448   2.01240
   A11        2.11815  -0.00647   0.00000  -0.01533  -0.01516   2.10299
   A12        2.11815   0.01753   0.00000   0.04948   0.04965   2.16780
   A13        2.07286   0.01397   0.00000   0.03945   0.03924   2.11210
   A14        2.10516  -0.01303   0.00000  -0.04321  -0.04311   2.06205
   A15        2.10516  -0.00094   0.00000   0.00376   0.00387   2.10903
   A16        2.11717   0.00057   0.00000   0.00204   0.00215   2.11933
   A17        2.08301  -0.00365   0.00000  -0.01409  -0.01414   2.06886
   A18        2.08301   0.00308   0.00000   0.01205   0.01199   2.09500
   A19        2.09440  -0.03109   0.00000  -0.12084  -0.12084   1.97355
   A20        2.09440   0.03282   0.00000   0.08860   0.08860   2.18300
   A21        2.09440  -0.02453   0.00000  -0.06622  -0.06622   2.02818
   A22        2.09440  -0.00829   0.00000  -0.02239  -0.02239   2.07201
   A23        1.91063  -0.01755   0.00000  -0.06822  -0.06822   1.84242
    D1        0.00000  -0.00024   0.00000  -0.00297  -0.00291  -0.00290
    D2       -3.14159  -0.00010   0.00000  -0.00121  -0.00117   3.14043
    D3       -3.14159  -0.00010   0.00000  -0.00109  -0.00109   3.14050
    D4        0.00000   0.00004   0.00000   0.00066   0.00065   0.00065
    D5       -0.00000   0.00013   0.00000   0.00165   0.00165   0.00164
    D6        3.14159   0.00004   0.00000   0.00053   0.00052  -3.14108
    D7        3.14159  -0.00001   0.00000  -0.00022  -0.00020   3.14139
    D8        0.00000  -0.00010   0.00000  -0.00134  -0.00133  -0.00133
    D9       -0.00000  -0.00081   0.00000  -0.01337  -0.01341  -0.01341
   D10        3.14159  -0.00073   0.00000  -0.01211  -0.01212   3.12947
   D11        3.14159  -0.00067   0.00000  -0.01157  -0.01156   3.13003
   D12       -0.00000  -0.00059   0.00000  -0.01031  -0.01027  -0.01027
   D13       -0.00000   0.00019   0.00000   0.00235   0.00239   0.00239
   D14        3.14159   0.00020   0.00000   0.00246   0.00248  -3.13911
   D15       -3.14159   0.00005   0.00000   0.00060   0.00062  -3.14097
   D16        0.00000   0.00006   0.00000   0.00070   0.00071   0.00071
   D17       -0.00000  -0.00006   0.00000  -0.00065  -0.00064  -0.00064
   D18       -3.14159   0.00001   0.00000   0.00024   0.00021  -3.14138
   D19        3.14159  -0.00006   0.00000  -0.00076  -0.00073   3.14087
   D20        0.00000   0.00000   0.00000   0.00013   0.00013   0.00013
   D21        0.00000  -0.00004   0.00000  -0.00057  -0.00058  -0.00057
   D22        3.14159   0.00004   0.00000   0.00051   0.00048  -3.14111
   D23        3.14159  -0.00011   0.00000  -0.00146  -0.00146   3.14013
   D24       -0.00000  -0.00002   0.00000  -0.00038  -0.00040  -0.00041
   D25        3.14159  -0.00001   0.00000  -0.00016  -0.00017   3.14143
   D26        0.00000   0.00006   0.00000   0.00077   0.00077   0.00077
   D27        0.00000   0.00001   0.00000   0.00008   0.00006   0.00006
   D28        3.14159   0.00010   0.00000   0.00121   0.00121  -3.14038
   D29       -3.14159  -0.00008   0.00000  -0.00099  -0.00103   3.14057
   D30        0.00000   0.00001   0.00000   0.00013   0.00012   0.00012
   D31        2.61799   0.00486   0.00000   0.06708   0.06711   2.68510
   D32       -0.52360   0.00494   0.00000   0.06834   0.06831  -0.45529
         Item               Value     Threshold  Converged?
 Maximum Force            0.056501     0.000450     NO 
 RMS     Force            0.014567     0.000300     NO 
 Maximum Displacement     0.187964     0.001800     NO 
 RMS     Displacement     0.051610     0.001200     NO 
 Predicted change in Energy=-2.361791D-02
 GradGradGradGradGradGradGradGradGradGradGradGradGradGradGradGradGradGrad

                          Input orientation:                          
 ---------------------------------------------------------------------
 Center     Atomic      Atomic             Coordinates (Angstroms)
 Number     Number       Type             X           Y           Z
 ---------------------------------------------------------------------
      1          6           0       -0.017193   -1.812111    0.048838
      2          6           0        1.207294   -1.112625    0.018935
      3          6           0        1.252703    0.250887   -0.022313
      4          6           0        0.014344    1.054434   -0.034388
      5          6           0       -1.248245    0.274676    0.000298
      6          6           0       -1.231432   -1.090422    0.039590
      7          1           0        2.122823   -1.683702    0.027758
      8          1           0        2.195449    0.773568   -0.047155
      9          7           0        0.070504    2.347930   -0.073884
     10          1           0       -2.181859    0.816617   -0.007388
     11          1           0       -2.159787   -1.642078    0.063335
     12          1           0       -0.840346    2.783665   -0.078244
     13          6           0       -0.007328   -3.279351    0.091404
     14          8           0        1.008504   -3.983009    0.090347
     15          8           0       -1.258062   -3.904566    0.134572
     16          1           0       -1.124578   -4.776234   -0.251763
 ---------------------------------------------------------------------
                    Distance matrix (angstroms):
                    1          2          3          4          5
     1  C    0.000000
     2  C    1.410512   0.000000
     3  C    2.423564   1.364892   0.000000
     4  C    2.867927   2.474292   1.476268   0.000000
     5  C    2.423329   2.820394   2.501163   1.484371   0.000000
     6  C    1.412549   2.438914   2.823804   2.481500   1.365767
     7  H    2.143969   1.079074   2.121851   3.456434   3.898730
     8  H    3.404517   2.130385   1.078231   2.199152   3.479967
     9  N    4.162774   3.643672   2.407870   1.295316   2.458248
    10  H    3.405752   3.899875   3.480875   2.209207   1.079534
    11  H    2.149379   3.408743   3.903299   3.465194   2.123400
    12  H    4.670641   4.402653   3.286175   1.929419   2.543143
    13  C    1.467890   2.485007   3.750092   4.335665   3.765539
    14  O    2.401370   2.878146   4.242429   5.136122   4.819638
    15  O    2.434230   3.726431   4.857607   5.122426   4.181410
    16  H    3.178473   4.351199   5.565614   5.944837   5.058708
                    6          7          8          9         10
     6  C    0.000000
     7  H    3.406339   0.000000
     8  H    3.901986   2.459484   0.000000
     9  N    3.678339   4.525086   2.644753   0.000000
    10  H    2.131271   4.978264   4.377700   2.724423   0.000000
    11  H    1.080153   4.282960   4.981529   4.573094   2.459810
    12  H    3.895560   5.361808   3.641087   1.009719   2.382007
    13  C    2.508490   2.662271   4.614929   5.630246   4.638458
    14  O    3.658818   2.555863   4.904362   6.402156   5.764059
    15  O    2.815872   4.046484   5.817620   6.395487   4.812808
    16  H    3.698853   4.493050   6.470297   7.225896   5.697152
                   11         12         13         14         15
    11  H    0.000000
    12  H    4.620408   0.000000
    13  C    2.704539   6.122325   0.000000
    14  O    3.939386   7.016734   1.235739   0.000000
    15  O    2.436604   6.704642   1.398962   2.268354   0.000000
    16  H    3.315703   7.567231   1.899124   2.301365   0.962745
                   16
    16  H    0.000000
 Stoichiometry    C7H6NO2(1-)
 Framework group  C1[X(C7H6NO2)]
 Deg. of freedom    42
 Full point group                 C1      NOp   1
 Largest Abelian subgroup         C1      NOp   1
 Largest concise Abelian subgroup C1      NOp   1
                         Standard orientation:                         
 ---------------------------------------------------------------------
 Center     Atomic      Atomic             Coordinates (Angstroms)
 Number     Number       Type             X           Y           Z
 ---------------------------------------------------------------------
      1          6           0       -0.618589    0.051922   -0.007683
      2          6           0        0.115694    1.256230   -0.003759
      3          6           0        1.480550    1.263184    0.003190
      4          6           0        2.248890    0.002621    0.003881
      5          6           0        1.433197   -1.237524   -0.002559
      6          6           0        0.068560   -1.182225   -0.007946
      7          1           0       -0.429368    2.187523   -0.004739
      8          1           0        2.030078    2.190856    0.008425
      9          7           0        3.544039    0.022299    0.010748
     10          1           0        1.948604   -2.186075   -0.001863
     11          1           0       -0.509489   -2.094683   -0.011464
     12          1           0        3.953876   -0.900505    0.010605
     13          6           0       -2.085573    0.103154   -0.013750
     14          8           0       -2.760044    1.138532   -0.002251
     15          8           0       -2.746712   -1.129580   -0.032602
     16          1           0       -3.604295   -0.968994    0.374387
 ---------------------------------------------------------------------
 Rotational constants (GHZ):           3.7340343           0.8093765           0.6654723
 Standard basis: def2TZVP (5D, 7F)
 There are   396 symmetry adapted cartesian basis functions of A   symmetry.
 There are   346 symmetry adapted basis functions of A   symmetry.
   346 basis functions,   558 primitive gaussians,   396 cartesian basis functions
    36 alpha electrons       36 beta electrons
       nuclear repulsion energy       472.2201129596 Hartrees.
 NAtoms=   16 NActive=   16 NUniq=   16 SFac= 1.00D+00 NAtFMM=   60 NAOKFM=F Big=F
 Integral buffers will be    131072 words long.
 Raffenetti 2 integral format.
 Two-electron integral symmetry is turned on.
 One-electron integrals computed using PRISM.
   1 Symmetry operations used in ECPInt.
 ECPInt:  NShTT=    9045 NPrTT=   28204 LenC2=    8623 LenP2D=   20869.
 LDataN:  DoStor=T MaxTD1= 6 Len=  172
 NBasis=   346 RedAO= T EigKep=  1.04D-05  NBF=   346
 NBsUse=   346 1.00D-06 EigRej= -1.00D+00 NBFU=   346
 Initial guess from the checkpoint file:  "C6H5NH-.chk"
 B after Tr=    -0.000000    0.000000    0.000000
         Rot=    0.999995    0.000178   -0.000034   -0.003225 Ang=   0.37 deg.
 ExpMin= 9.52D-02 ExpMax= 2.70D+04 ExpMxC= 9.22D+02 IAcc=2 IRadAn=         4 AccDes= 0.00D+00
 Harris functional with IExCor=  402 and IRadAn=       4 diagonalized for initial guess.
 HarFok:  IExCor=  402 AccDes= 0.00D+00 IRadAn=         4 IDoV= 1 UseB2=F ITyADJ=14
 ICtDFT=  3500011 ScaDFX=  1.000000  1.000000  1.000000  1.000000
 FoFCou: FMM=F IPFlag=           0 FMFlag=      100000 FMFlg1=           0
         NFxFlg=           0 DoJE=T BraDBF=F KetDBF=T FulRan=T
         wScrn=  0.000000 ICntrl=       500 IOpCl=  0 I1Cent=   200000004 NGrid=           0
         NMat0=    1 NMatS0=      1 NMatT0=    0 NMatD0=    1 NMtDS0=    0 NMtDT0=    0
 Petite list used in FoFCou.
 Requested convergence on RMS density matrix=1.00D-08 within 128 cycles.
 Requested convergence on MAX density matrix=1.00D-06.
 Requested convergence on             energy=1.00D-06.
 No special actions if energy rises.
 Integral accuracy reduced to 1.0D-05 until final iterations.
 Initial convergence to 1.0D-05 achieved.  Increase integral accuracy.
 SCF Done:  E(RB3LYP) =  -475.799484050     A.U. after   14 cycles
            NFock= 14  Conv=0.43D-08     -V/T= 2.0048
   1 Symmetry operations used in ECPInt.
 ECPInt:  NShTT=    9045 NPrTT=   28204 LenC2=    8623 LenP2D=   20869.
 LDataN:  DoStor=T MaxTD1= 7 Len=  274
 Calling FoFJK, ICntrl=      2127 FMM=F ISym2X=0 I1Cent= 0 IOpClX= 0 NMat=1 NMatS=1 NMatT=0.
 ***** Axes restored to original set *****
 -------------------------------------------------------------------
 Center     Atomic                   Forces (Hartrees/Bohr)
 Number     Number              X              Y              Z
 -------------------------------------------------------------------
      1        6          -0.011317653   -0.037684212    0.002860678
      2        6           0.000628865    0.008901566    0.000524973
      3        6          -0.019687337    0.001850464    0.000061915
      4        6          -0.010083993   -0.018838603    0.000758695
      5        6           0.023145096    0.001056835   -0.000157713
      6        6           0.000829413    0.007501490   -0.000477814
      7        1           0.002015967   -0.002553490    0.000104515
      8        1           0.001928517    0.003500093   -0.000211899
      9        7           0.017719216    0.014705260   -0.000705655
     10        1          -0.002939838    0.003018179   -0.000092198
     11        1          -0.001835658   -0.001353279   -0.000063459
     12        1          -0.009513002   -0.002302624    0.000197140
     13        6           0.018673544    0.014146593    0.000250257
     14        8          -0.013974446    0.001404949   -0.003001946
     15        8          -0.000003636    0.010590728   -0.004190910
     16        1           0.004414945   -0.003943948    0.004143420
 -------------------------------------------------------------------
 Cartesian Forces:  Max     0.037684212 RMS     0.009886556

 GradGradGradGradGradGradGradGradGradGradGradGradGradGradGradGradGradGrad
 Berny optimization.
 Using GEDIIS/GDIIS optimizer.
 FormGI is forming the generalized inverse of G from B-inverse, IUseBI=4.
 Internal  Forces:  Max     0.022208520 RMS     0.005698141
 Search for a local minimum.
 Step number   2 out of a maximum of   81
 All quantities printed in internal units (Hartrees-Bohrs-Radians)
 Mixed Optimization -- RFO/linear search
 Update second derivatives using D2CorX and points    1    2
 DE= -2.51D-02 DEPred=-2.36D-02 R= 1.06D+00
 TightC=F SS=  1.41D+00  RLast= 3.16D-01 DXNew= 5.0454D-01 9.4712D-01
 Trust test= 1.06D+00 RLast= 3.16D-01 DXMaxT set to 5.05D-01
 ITU=  1  0
 Use linear search instead of GDIIS.
     Eigenvalues ---    0.00237   0.00558   0.00597   0.01137   0.01273
     Eigenvalues ---    0.01434   0.01440   0.01667   0.02028   0.02064
     Eigenvalues ---    0.02308   0.02349   0.03099   0.15836   0.16000
     Eigenvalues ---    0.16000   0.16000   0.16000   0.16519   0.21970
     Eigenvalues ---    0.22187   0.22960   0.24805   0.25000   0.25000
     Eigenvalues ---    0.25218   0.26864   0.28955   0.29588   0.37138
     Eigenvalues ---    0.37230   0.37230   0.37275   0.41034   0.42211
     Eigenvalues ---    0.43019   0.47542   0.50482   0.54257   0.55459
     Eigenvalues ---    0.69540   0.80725
 RFO step:  Lambda=-3.56998427D-03 EMin= 2.36899345D-03
 Quartic linear search produced a step of  0.51521.
 Iteration  1 RMS(Cart)=  0.05210587 RMS(Int)=  0.01469452
 Iteration  2 RMS(Cart)=  0.01619809 RMS(Int)=  0.00075998
 Iteration  3 RMS(Cart)=  0.00073407 RMS(Int)=  0.00011324
 Iteration  4 RMS(Cart)=  0.00000080 RMS(Int)=  0.00011323
 Variable       Old X    -DE/DX   Delta X   Delta X   Delta X     New X
                                 (Linear)    (Quad)   (Total)
    R1        2.66548   0.00397  -0.00510   0.02185   0.01694   2.68242
    R2        2.66933   0.00246  -0.00311   0.01396   0.01104   2.68037
    R3        2.77391  -0.02221  -0.07021  -0.01449  -0.08470   2.68922
    R4        2.57927   0.00105   0.00872  -0.00823   0.00049   2.57976
    R5        2.03915   0.00306   0.00883   0.00021   0.00904   2.04820
    R6        2.78974  -0.01524  -0.04845  -0.00859  -0.05723   2.73251
    R7        2.03756   0.00339   0.00801   0.00264   0.01065   2.04821
    R8        2.80505  -0.01588  -0.04056  -0.02317  -0.06392   2.74114
    R9        2.44779   0.01276   0.00167   0.02566   0.02733   2.47512
   R10        2.58093   0.00183   0.00957  -0.00723   0.00235   2.58327
   R11        2.04002   0.00406   0.00928   0.00359   0.01287   2.05290
   R12        2.04119   0.00227   0.00989  -0.00442   0.00546   2.04666
   R13        1.90809   0.00759   0.00946   0.01141   0.02088   1.92897
   R14        2.33521  -0.01229  -0.02206   0.00411  -0.01795   2.31726
   R15        2.64365  -0.00692  -0.03022   0.01539  -0.01483   2.62882
   R16        1.81932   0.00252   0.00267   0.00338   0.00605   1.82538
    A1        2.08603  -0.01106  -0.02751  -0.02190  -0.04901   2.03702
    A2        2.08342   0.00271   0.00595   0.00585   0.01159   2.09502
    A3        2.11373   0.00835   0.02156   0.01605   0.03741   2.15114
    A4        2.12343   0.00131   0.00322   0.00464   0.00805   2.13148
    A5        2.06453  -0.00178  -0.00952   0.00080  -0.00881   2.05572
    A6        2.09522   0.00047   0.00629  -0.00544   0.00076   2.09598
    A7        2.11309   0.00608   0.02072   0.00510   0.02562   2.13871
    A8        2.11070  -0.00087   0.00285  -0.00509  -0.00214   2.10856
    A9        2.05940  -0.00521  -0.02358  -0.00001  -0.02349   2.03591
   A10        2.01240  -0.00382  -0.01777  -0.00212  -0.02030   1.99210
   A11        2.10299  -0.00156  -0.00781   0.00532  -0.00229   2.10070
   A12        2.16780   0.00539   0.02558  -0.00319   0.02259   2.19039
   A13        2.11210   0.00657   0.02022   0.00912   0.02915   2.14125
   A14        2.06205  -0.00444  -0.02221   0.00539  -0.01673   2.04532
   A15        2.10903  -0.00213   0.00199  -0.01451  -0.01243   2.09660
   A16        2.11933   0.00092   0.00111   0.00517   0.00648   2.12580
   A17        2.06886  -0.00069  -0.00729   0.00680  -0.00059   2.06827
   A18        2.09500  -0.00023   0.00618  -0.01196  -0.00589   2.08911
   A19        1.97355  -0.01180  -0.06226  -0.00270  -0.06496   1.90859
   A20        2.18300   0.01193   0.04565   0.00283   0.04847   2.23146
   A21        2.02818  -0.00823  -0.03412   0.00196  -0.03217   1.99601
   A22        2.07201  -0.00370  -0.01153  -0.00477  -0.01632   2.05569
   A23        1.84242  -0.00516  -0.03515   0.01234  -0.02281   1.81961
    D1       -0.00290  -0.00010  -0.00150   0.00042  -0.00101  -0.00392
    D2        3.14043  -0.00004  -0.00060  -0.00035  -0.00090   3.13953
    D3        3.14050  -0.00002  -0.00056   0.00221   0.00163  -3.14106
    D4        0.00065   0.00004   0.00033   0.00144   0.00174   0.00239
    D5        0.00164   0.00005   0.00085  -0.00096  -0.00011   0.00153
    D6       -3.14108  -0.00001   0.00027  -0.00155  -0.00130   3.14081
    D7        3.14139  -0.00004  -0.00010  -0.00280  -0.00287   3.13852
    D8       -0.00133  -0.00010  -0.00069  -0.00339  -0.00406  -0.00539
    D9       -0.01341  -0.00065  -0.00691  -0.04146  -0.04837  -0.06178
   D10        3.12947  -0.00065  -0.00624  -0.05011  -0.05644   3.07303
   D11        3.13003  -0.00055  -0.00596  -0.03959  -0.04546   3.08457
   D12       -0.01027  -0.00055  -0.00529  -0.04824  -0.05353  -0.06380
   D13        0.00239   0.00011   0.00123  -0.00010   0.00115   0.00355
   D14       -3.13911   0.00010   0.00128  -0.00054   0.00075  -3.13836
   D15       -3.14097   0.00004   0.00032   0.00070   0.00103  -3.13994
   D16        0.00071   0.00004   0.00037   0.00026   0.00063   0.00134
   D17       -0.00064  -0.00002  -0.00033   0.00030  -0.00002  -0.00066
   D18       -3.14138  -0.00000   0.00011  -0.00023  -0.00013  -3.14151
   D19        3.14087  -0.00002  -0.00037   0.00073   0.00037   3.14123
   D20        0.00013   0.00000   0.00007   0.00020   0.00026   0.00039
   D21       -0.00057  -0.00004  -0.00030  -0.00084  -0.00114  -0.00171
   D22       -3.14111   0.00002   0.00025   0.00055   0.00079  -3.14032
   D23        3.14013  -0.00007  -0.00075  -0.00028  -0.00104   3.13909
   D24       -0.00041  -0.00001  -0.00021   0.00110   0.00088   0.00047
   D25        3.14143   0.00002  -0.00009   0.00107   0.00099  -3.14077
   D26        0.00077   0.00005   0.00040   0.00050   0.00089   0.00166
   D27        0.00006   0.00002   0.00003   0.00116   0.00119   0.00125
   D28       -3.14038   0.00008   0.00062   0.00176   0.00239  -3.13799
   D29        3.14057  -0.00005  -0.00053  -0.00024  -0.00079   3.13978
   D30        0.00012   0.00002   0.00006   0.00035   0.00041   0.00053
   D31        2.68510   0.00540   0.03457   0.25111   0.28559   2.97069
   D32       -0.45529   0.00538   0.03519   0.24304   0.27833  -0.17696
         Item               Value     Threshold  Converged?
 Maximum Force            0.022209     0.000450     NO 
 RMS     Force            0.005698     0.000300     NO 
 Maximum Displacement     0.409731     0.001800     NO 
 RMS     Displacement     0.065846     0.001200     NO 
 Predicted change in Energy=-7.111960D-03
 GradGradGradGradGradGradGradGradGradGradGradGradGradGradGradGradGradGrad

                          Input orientation:                          
 ---------------------------------------------------------------------
 Center     Atomic      Atomic             Coordinates (Angstroms)
 Number     Number       Type             X           Y           Z
 ---------------------------------------------------------------------
      1          6           0       -0.024409   -1.846603    0.014143
      2          6           0        1.191993   -1.114975    0.012620
      3          6           0        1.218238    0.249796   -0.005919
      4          6           0        0.014425    1.050713   -0.021007
      5          6           0       -1.212730    0.277312   -0.015564
      6          6           0       -1.223797   -1.089560    0.000327
      7          1           0        2.119151   -1.676201    0.025034
      8          1           0        2.159617    0.786972   -0.009708
      9          7           0        0.089352    2.358227   -0.038692
     10          1           0       -2.147871    0.830047   -0.027600
     11          1           0       -2.168884   -1.618520    0.000356
     12          1           0       -0.852796    2.750989   -0.046498
     13          6           0        0.000118   -3.269318    0.034495
     14          8           0        0.979724   -4.005699   -0.007721
     15          8           0       -1.254659   -3.863720    0.120620
     16          1           0       -1.084678   -4.801783   -0.034943
 ---------------------------------------------------------------------
                    Distance matrix (angstroms):
                    1          2          3          4          5
     1  C    0.000000
     2  C    1.419478   0.000000
     3  C    2.437101   1.365149   0.000000
     4  C    2.897790   2.465360   1.445981   0.000000
     5  C    2.433928   2.778840   2.431143   1.450548   0.000000
     6  C    1.418393   2.415955   2.785220   2.472735   1.367009
     7  H    2.150350   1.083859   2.126515   3.445004   3.862550
     8  H    3.421441   2.134056   1.083867   2.161374   3.410647
     9  N    4.206701   3.644391   2.391849   1.309779   2.454824
    10  H    3.416912   3.865154   3.415823   2.173536   1.086347
    11  H    2.156614   3.398411   3.868234   3.448492   2.123360
    12  H    4.672019   4.373824   3.247583   1.908838   2.499918
    13  C    1.423071   2.462161   3.724192   4.320411   3.748611
    14  O    2.381272   2.898578   4.262174   5.147745   4.811559
    15  O    2.365081   3.681490   4.801275   5.077625   4.143482
    16  H    3.140011   4.333364   5.551820   5.954824   5.080746
                    6          7          8          9         10
     6  C    0.000000
     7  H    3.394121   0.000000
     8  H    3.868974   2.463750   0.000000
     9  N    3.689596   4.516720   2.599170   0.000000
    10  H    2.130630   4.948891   4.307740   2.709358   0.000000
    11  H    1.083045   4.288493   4.952010   4.573365   2.448817
    12  H    3.858711   5.332691   3.596296   1.020767   2.316807
    13  C    2.500096   2.651114   4.595528   5.628728   4.628445
    14  O    3.655056   2.593439   4.935772   6.425985   5.759052
    15  O    2.776938   4.022060   5.770892   6.367446   4.780298
    16  H    3.714996   4.476313   6.462218   7.255626   5.731313
                   11         12         13         14         15
    11  H    0.000000
    12  H    4.563649   0.000000
    13  C    2.725962   6.080963   0.000000
    14  O    3.951255   7.000890   1.226241   0.000000
    15  O    2.427178   6.629011   1.391113   2.242565   0.000000
    16  H    3.363021   7.556340   1.878844   2.212746   0.965948
                   16
    16  H    0.000000
 Stoichiometry    C7H6NO2(1-)
 Framework group  C1[X(C7H6NO2)]
 Deg. of freedom    42
 Full point group                 C1      NOp   1
 Largest Abelian subgroup         C1      NOp   1
 Largest concise Abelian subgroup C1      NOp   1
                         Standard orientation:                         
 ---------------------------------------------------------------------
 Center     Atomic      Atomic             Coordinates (Angstroms)
 Number     Number       Type             X           Y           Z
 ---------------------------------------------------------------------
      1          6           0       -0.653516    0.047483    0.003437
      2          6           0        0.112724    1.242189   -0.018281
      3          6           0        1.477811    1.229195   -0.018161
      4          6           0        2.243930    0.002979   -0.000325
      5          6           0        1.435576   -1.201310    0.018149
      6          6           0        0.068862   -1.173057    0.020535
      7          1           0       -0.421740    2.184985   -0.033551
      8          1           0        2.041823    2.154649   -0.031973
      9          7           0        3.553177    0.040289   -0.000838
     10          1           0        1.961319   -2.151845    0.033242
     11          1           0       -0.486994   -2.102414    0.038039
     12          1           0        3.918768   -0.912674    0.012227
     13          6           0       -2.075082    0.112879    0.001709
     14          8           0       -2.782362    1.113745    0.042804
     15          8           0       -2.706418   -1.125055   -0.062558
     16          1           0       -3.637007   -0.926387    0.103548
 ---------------------------------------------------------------------
 Rotational constants (GHZ):           3.8524088           0.8105684           0.6698856
 Standard basis: def2TZVP (5D, 7F)
 There are   396 symmetry adapted cartesian basis functions of A   symmetry.
 There are   346 symmetry adapted basis functions of A   symmetry.
   346 basis functions,   558 primitive gaussians,   396 cartesian basis functions
    36 alpha electrons       36 beta electrons
       nuclear repulsion energy       474.7450113588 Hartrees.
 NAtoms=   16 NActive=   16 NUniq=   16 SFac= 1.00D+00 NAtFMM=   60 NAOKFM=F Big=F
 Integral buffers will be    131072 words long.
 Raffenetti 2 integral format.
 Two-electron integral symmetry is turned on.
 One-electron integrals computed using PRISM.
   1 Symmetry operations used in ECPInt.
 ECPInt:  NShTT=    9045 NPrTT=   28204 LenC2=    8633 LenP2D=   20911.
 LDataN:  DoStor=T MaxTD1= 6 Len=  172
 NBasis=   346 RedAO= T EigKep=  9.77D-06  NBF=   346
 NBsUse=   346 1.00D-06 EigRej= -1.00D+00 NBFU=   346
 Initial guess from the checkpoint file:  "C6H5NH-.chk"
 B after Tr=     0.000000   -0.000000   -0.000000
         Rot=    0.999999    0.000131    0.000079   -0.001470 Ang=   0.17 deg.
 ExpMin= 9.52D-02 ExpMax= 2.70D+04 ExpMxC= 9.22D+02 IAcc=2 IRadAn=         4 AccDes= 0.00D+00
 Harris functional with IExCor=  402 and IRadAn=       4 diagonalized for initial guess.
 HarFok:  IExCor=  402 AccDes= 0.00D+00 IRadAn=         4 IDoV= 1 UseB2=F ITyADJ=14
 ICtDFT=  3500011 ScaDFX=  1.000000  1.000000  1.000000  1.000000
 FoFCou: FMM=F IPFlag=           0 FMFlag=      100000 FMFlg1=           0
         NFxFlg=           0 DoJE=T BraDBF=F KetDBF=T FulRan=T
         wScrn=  0.000000 ICntrl=       500 IOpCl=  0 I1Cent=   200000004 NGrid=           0
         NMat0=    1 NMatS0=      1 NMatT0=    0 NMatD0=    1 NMtDS0=    0 NMtDT0=    0
 Petite list used in FoFCou.
 Requested convergence on RMS density matrix=1.00D-08 within 128 cycles.
 Requested convergence on MAX density matrix=1.00D-06.
 Requested convergence on             energy=1.00D-06.
 No special actions if energy rises.
 Integral accuracy reduced to 1.0D-05 until final iterations.
 Initial convergence to 1.0D-05 achieved.  Increase integral accuracy.
 SCF Done:  E(RB3LYP) =  -475.805832281     A.U. after   14 cycles
            NFock= 14  Conv=0.59D-08     -V/T= 2.0045
   1 Symmetry operations used in ECPInt.
 ECPInt:  NShTT=    9045 NPrTT=   28204 LenC2=    8633 LenP2D=   20911.
 LDataN:  DoStor=T MaxTD1= 7 Len=  274
 Calling FoFJK, ICntrl=      2127 FMM=F ISym2X=0 I1Cent= 0 IOpClX= 0 NMat=1 NMatS=1 NMatT=0.
 ***** Axes restored to original set *****
 -------------------------------------------------------------------
 Center     Atomic                   Forces (Hartrees/Bohr)
 Number     Number              X              Y              Z
 -------------------------------------------------------------------
      1        6          -0.001918721    0.003412011    0.000822595
      2        6           0.001224250    0.002790869   -0.000641758
      3        6           0.001958806   -0.002293442    0.000097717
      4        6          -0.002499314   -0.001783680    0.000014511
      5        6          -0.000049412   -0.000821386   -0.000091157
      6        6          -0.000136568    0.001401136    0.000412583
      7        1           0.000040535   -0.000186667   -0.000043737
      8        1           0.000486712   -0.000022730    0.000131707
      9        7           0.002198363    0.004354530   -0.000028408
     10        1          -0.000856468   -0.000386255   -0.000080222
     11        1          -0.000354178    0.000062511    0.000023179
     12        1          -0.000901814   -0.000504763   -0.000017238
     13        6          -0.000575321   -0.002114057    0.001420734
     14        8           0.003293893   -0.003692499   -0.001221391
     15        8          -0.003779478    0.000048653   -0.003014444
     16        1           0.001868716   -0.000264232    0.002215327
 -------------------------------------------------------------------
 Cartesian Forces:  Max     0.004354530 RMS     0.001694881

 GradGradGradGradGradGradGradGradGradGradGradGradGradGradGradGradGradGrad
 Berny optimization.
 Using GEDIIS/GDIIS optimizer.
 FormGI is forming the generalized inverse of G from B-inverse, IUseBI=4.
 Internal  Forces:  Max     0.006025890 RMS     0.001309638
 Search for a local minimum.
 Step number   3 out of a maximum of   81
 All quantities printed in internal units (Hartrees-Bohrs-Radians)
 Mixed Optimization -- RFO/linear search
 Update second derivatives using D2CorX and points    2    3
 DE= -6.35D-03 DEPred=-7.11D-03 R= 8.93D-01
 TightC=F SS=  1.41D+00  RLast= 4.50D-01 DXNew= 8.4853D-01 1.3504D+00
 Trust test= 8.93D-01 RLast= 4.50D-01 DXMaxT set to 8.49D-01
 ITU=  1  1  0
 Use linear search instead of GDIIS.
     Eigenvalues ---    0.00243   0.00538   0.00599   0.01140   0.01288
     Eigenvalues ---    0.01423   0.01446   0.01668   0.02031   0.02077
     Eigenvalues ---    0.02311   0.02347   0.03099   0.15600   0.16000
     Eigenvalues ---    0.16000   0.16000   0.16068   0.16557   0.21974
     Eigenvalues ---    0.22630   0.23022   0.24775   0.25000   0.25014
     Eigenvalues ---    0.25273   0.28721   0.29356   0.31045   0.37059
     Eigenvalues ---    0.37230   0.37232   0.37272   0.41005   0.42120
     Eigenvalues ---    0.43688   0.47422   0.50425   0.54375   0.55443
     Eigenvalues ---    0.68700   0.82283
 RFO step:  Lambda=-1.17845909D-03 EMin= 2.42788643D-03
 Quartic linear search produced a step of  0.06592.
 Iteration  1 RMS(Cart)=  0.04547990 RMS(Int)=  0.00505474
 Iteration  2 RMS(Cart)=  0.00415595 RMS(Int)=  0.00024842
 Iteration  3 RMS(Cart)=  0.00008351 RMS(Int)=  0.00023816
 Iteration  4 RMS(Cart)=  0.00000001 RMS(Int)=  0.00023816
 Variable       Old X    -DE/DX   Delta X   Delta X   Delta X     New X
                                 (Linear)    (Quad)   (Total)
    R1        2.68242   0.00208   0.00112   0.00459   0.00572   2.68814
    R2        2.68037   0.00095   0.00073   0.00202   0.00276   2.68313
    R3        2.68922   0.00603  -0.00558   0.02002   0.01443   2.70365
    R4        2.57976  -0.00111   0.00003  -0.00171  -0.00168   2.57808
    R5        2.04820   0.00013   0.00060   0.00070   0.00129   2.04949
    R6        2.73251   0.00249  -0.00377   0.00713   0.00334   2.73585
    R7        2.04821   0.00041   0.00070   0.00142   0.00212   2.05033
    R8        2.74114   0.00129  -0.00421   0.00342  -0.00080   2.74034
    R9        2.47512   0.00392   0.00180   0.00567   0.00747   2.48259
   R10        2.58327  -0.00034   0.00015  -0.00019  -0.00003   2.58324
   R11        2.05290   0.00054   0.00085   0.00182   0.00267   2.05557
   R12        2.04666   0.00028   0.00036   0.00123   0.00159   2.04825
   R13        1.92897   0.00064   0.00138   0.00159   0.00297   1.93194
   R14        2.31726   0.00489  -0.00118   0.00551   0.00433   2.32159
   R15        2.62882   0.00177  -0.00098   0.00316   0.00218   2.63100
   R16        1.82538   0.00023   0.00040   0.00048   0.00088   1.82626
    A1        2.03702  -0.00062  -0.00323  -0.00312  -0.00634   2.03068
    A2        2.09502  -0.00029   0.00076  -0.00116  -0.00041   2.09461
    A3        2.15114   0.00092   0.00247   0.00430   0.00675   2.15790
    A4        2.13148   0.00058   0.00053   0.00280   0.00333   2.13481
    A5        2.05572  -0.00043  -0.00058  -0.00264  -0.00323   2.05250
    A6        2.09598  -0.00015   0.00005  -0.00015  -0.00011   2.09587
    A7        2.13871  -0.00019   0.00169  -0.00045   0.00122   2.13993
    A8        2.10856  -0.00017  -0.00014  -0.00108  -0.00121   2.10735
    A9        2.03591   0.00036  -0.00155   0.00153  -0.00001   2.03590
   A10        1.99210  -0.00036  -0.00134  -0.00235  -0.00371   1.98839
   A11        2.10070  -0.00037  -0.00015  -0.00180  -0.00194   2.09876
   A12        2.19039   0.00073   0.00149   0.00414   0.00564   2.19603
   A13        2.14125   0.00018   0.00192   0.00121   0.00312   2.14437
   A14        2.04532   0.00070  -0.00110   0.00400   0.00290   2.04823
   A15        2.09660  -0.00088  -0.00082  -0.00520  -0.00602   2.09058
   A16        2.12580   0.00042   0.00043   0.00193   0.00237   2.12817
   A17        2.06827   0.00002  -0.00004   0.00016   0.00012   2.06839
   A18        2.08911  -0.00044  -0.00039  -0.00210  -0.00250   2.08661
   A19        1.90859  -0.00157  -0.00428  -0.01224  -0.01652   1.89208
   A20        2.23146   0.00097   0.00319   0.00581   0.00787   2.23934
   A21        1.99601   0.00019  -0.00212  -0.00029  -0.00353   1.99248
   A22        2.05569  -0.00115  -0.00108  -0.00502  -0.00721   2.04848
   A23        1.81961  -0.00281  -0.00150  -0.01983  -0.02133   1.79828
    D1       -0.00392   0.00010  -0.00007   0.00533   0.00525   0.00134
    D2        3.13953   0.00002  -0.00006   0.00149   0.00142   3.14095
    D3       -3.14106   0.00003   0.00011   0.00071   0.00083  -3.14023
    D4        0.00239  -0.00004   0.00011  -0.00313  -0.00300  -0.00062
    D5        0.00153   0.00002  -0.00001   0.00014   0.00013   0.00166
    D6        3.14081  -0.00004  -0.00009  -0.00277  -0.00286   3.13795
    D7        3.13852   0.00008  -0.00019   0.00490   0.00471  -3.13996
    D8       -0.00539   0.00003  -0.00027   0.00199   0.00173  -0.00367
    D9       -0.06178   0.00011  -0.00319   0.07569   0.07241   0.01063
   D10        3.07303   0.00067  -0.00372   0.16740   0.16378  -3.04637
   D11        3.08457   0.00005  -0.00300   0.07078   0.06768  -3.13093
   D12       -0.06380   0.00061  -0.00353   0.16249   0.15905   0.09525
   D13        0.00355  -0.00013   0.00008  -0.00619  -0.00612  -0.00257
   D14       -3.13836  -0.00011   0.00005  -0.00597  -0.00593   3.13890
   D15       -3.13994  -0.00006   0.00007  -0.00227  -0.00220   3.14105
   D16        0.00134  -0.00004   0.00004  -0.00205  -0.00201  -0.00067
   D17       -0.00066   0.00005  -0.00000   0.00147   0.00147   0.00080
   D18       -3.14151   0.00005  -0.00001   0.00219   0.00217  -3.13933
   D19        3.14123   0.00003   0.00002   0.00126   0.00128  -3.14067
   D20        0.00039   0.00004   0.00002   0.00197   0.00199   0.00238
   D21       -0.00171   0.00007  -0.00007   0.00399   0.00391   0.00220
   D22       -3.14032   0.00004   0.00005   0.00287   0.00292  -3.13740
   D23        3.13909   0.00006  -0.00007   0.00323   0.00316  -3.14094
   D24        0.00047   0.00003   0.00006   0.00211   0.00216   0.00264
   D25       -3.14077  -0.00002   0.00007  -0.00108  -0.00101   3.14140
   D26        0.00166  -0.00002   0.00006  -0.00027  -0.00021   0.00145
   D27        0.00125  -0.00010   0.00008  -0.00484  -0.00476  -0.00351
   D28       -3.13799  -0.00005   0.00016  -0.00190  -0.00175  -3.13974
   D29        3.13978  -0.00007  -0.00005  -0.00367  -0.00373   3.13605
   D30        0.00053  -0.00001   0.00003  -0.00074  -0.00071  -0.00018
   D31        2.97069   0.00192   0.01882   0.10333   0.12247   3.09316
   D32       -0.17696   0.00243   0.01835   0.18522   0.20325   0.02629
         Item               Value     Threshold  Converged?
 Maximum Force            0.006026     0.000450     NO 
 RMS     Force            0.001310     0.000300     NO 
 Maximum Displacement     0.290574     0.001800     NO 
 RMS     Displacement     0.044858     0.001200     NO 
 Predicted change in Energy=-7.088169D-04
 GradGradGradGradGradGradGradGradGradGradGradGradGradGradGradGradGradGrad

                          Input orientation:                          
 ---------------------------------------------------------------------
 Center     Atomic      Atomic             Coordinates (Angstroms)
 Number     Number       Type             X           Y           Z
 ---------------------------------------------------------------------
      1          6           0       -0.030759   -1.846963    0.034565
      2          6           0        1.187487   -1.113002    0.008267
      3          6           0        1.216921    0.250675   -0.018627
      4          6           0        0.014535    1.057025   -0.025675
      5          6           0       -1.212131    0.284026   -0.000580
      6          6           0       -1.227263   -1.082546    0.029716
      7          1           0        2.113951   -1.676814    0.012061
      8          1           0        2.161167    0.784817   -0.035817
      9          7           0        0.096893    2.367855   -0.054483
     10          1           0       -2.150177    0.834689   -0.008539
     11          1           0       -2.175978   -1.606471    0.045743
     12          1           0       -0.850952    2.750950   -0.054809
     13          6           0       -0.004093   -3.277123    0.063893
     14          8           0        0.973995   -4.020329    0.080583
     15          8           0       -1.258854   -3.872579   -0.033145
     16          1           0       -1.051950   -4.816533   -0.043213
 ---------------------------------------------------------------------
                    Distance matrix (angstroms):
                    1          2          3          4          5
     1  C    0.000000
     2  C    1.422503   0.000000
     3  C    2.441234   1.364260   0.000000
     4  C    2.904966   2.466978   1.447751   0.000000
     5  C    2.436799   2.776676   2.429348   1.450126   0.000000
     6  C    1.419852   2.415038   2.784574   2.474448   1.366991
     7  H    2.151567   1.084544   2.126222   3.447151   3.861072
     8  H    3.425750   2.133474   1.084990   2.163846   3.410450
     9  N    4.217691   3.648246   2.395454   1.313731   2.461462
    10  H    3.418339   3.864425   3.417385   2.176167   1.087761
    11  H    2.158686   3.399679   3.868449   3.449298   2.122528
    12  H    4.671350   4.369134   3.244809   1.902446   2.493813
    13  C    1.430709   2.471109   3.734038   4.335113   3.761022
    14  O    2.394821   2.916053   4.279058   5.168305   4.828375
    15  O    2.369793   3.688030   4.809459   5.091421   4.156995
    16  H    3.141214   4.328265   5.552025   5.969622   5.103252
                    6          7          8          9         10
     6  C    0.000000
     7  H    3.393698   0.000000
     8  H    3.869471   2.462550   0.000000
     9  N    3.696721   4.520211   2.601458   0.000000
    10  H    2.128150   4.948824   4.311719   2.720668   0.000000
    11  H    1.083888   4.290638   4.953357   4.579439   2.441900
    12  H    3.852849   5.329186   3.597069   1.022337   2.315638
    13  C    2.512664   2.655143   4.604091   5.647122   4.638741
    14  O    3.671335   2.606963   4.950996   6.449531   5.774045
    15  O    2.790920   4.024828   5.778226   6.386042   4.790974
    16  H    3.738812   4.459128   6.457500   7.275672   5.757049
                   11         12         13         14         15
    11  H    0.000000
    12  H    4.555537   0.000000
    13  C    2.740162   6.088425   0.000000
    14  O    3.968659   7.014199   1.228532   0.000000
    15  O    2.445933   6.636113   1.392267   2.240620   0.000000
    16  H    3.402331   7.570161   1.865278   2.180303   0.966416
                   16
    16  H    0.000000
 Stoichiometry    C7H6NO2(1-)
 Framework group  C1[X(C7H6NO2)]
 Deg. of freedom    42
 Full point group                 C1      NOp   1
 Largest Abelian subgroup         C1      NOp   1
 Largest concise Abelian subgroup C1      NOp   1
                         Standard orientation:                         
 ---------------------------------------------------------------------
 Center     Atomic      Atomic             Coordinates (Angstroms)
 Number     Number       Type             X           Y           Z
 ---------------------------------------------------------------------
[...]

 ----------------------------------------------------------------------

 Dipole orientation:
     6          1.64704130         -1.26775172          2.79910938
     6          2.43303151         -1.86270178          0.29872291
     6          1.21806908         -0.94277126         -1.77916400
     6         -0.96159165          0.70748887         -1.59914964
     6         -1.72044631          1.28182891          0.97307006
     6         -0.48174380          0.34389557          3.03679792
     1          4.05718937         -3.09234549          0.08072650
     1          1.85604344         -1.42572589         -3.66567200
     7         -2.06807220          1.54514153         -3.65734270
     1         -3.34521761          2.51193341          1.23283218
     1         -1.13326783          0.83707311          4.91450386
     1         -3.55380081          2.66990064         -3.15012601
     6          2.98883399         -2.28372561          4.91259016
     8          4.84104903         -3.68627718          4.89519382
     8          2.03505870         -1.56160898          7.25810038
     1          3.15083974         -2.40646833          8.43251863

 Electric dipole moment (dipole orientation):
 (Debye = 10**-18 statcoulomb cm , SI units = C m)
                  (au)            (Debye)         (10**-30 SI)
   Tot        0.170623D+01      0.433680D+01      0.144660D+02
   x          0.000000D+00      0.000000D+00      0.000000D+00
   y          0.000000D+00      0.000000D+00      0.000000D+00
   z          0.170623D+01      0.433680D+01      0.144660D+02

 Dipole polarizability, Alpha (dipole orientation).
 (esu units = cm**3 , SI units = C**2 m**2 J**-1)
 Alpha(0;0):
               (au)            (10**-24 esu)      (10**-40 SI)
   iso        0.116742D+03      0.172994D+02      0.192482D+02
   aniso      0.121535D+03      0.180097D+02      0.200385D+02
   xx         0.107733D+03      0.159643D+02      0.177627D+02
   yx        -0.395441D+02     -0.585983D+01     -0.651994D+01
   yy         0.854440D+02      0.126615D+02      0.140878D+02
   zx         0.358059D+02      0.530588D+01      0.590359D+01
   zy        -0.271126D+02     -0.401768D+01     -0.447027D+01
   zz         0.157050D+03      0.232724D+02      0.258940D+02

 ----------------------------------------------------------------------
 1\1\GINC-N12\Freq\RB3LYP\def2TZVP\C7H6N1O2(1-)\UNKNOWN\23-Jan-2025\0\\
 #N Geom=AllCheck Guess=TCheck SCRF=Check GenChk RB3LYP/def2TZVP Freq\\
 opt\\-1,1\C,-0.0299319149,-1.8446571403,0.0088065878\C,1.1897112821,-1
 .1130295196,0.0035577667\C,1.2198793871,0.2501716301,-0.0093825374\C,0
 .014469988,1.0557687276,-0.0187241288\C,-1.2140257126,0.2830119982,-0.
 013122533\C,-1.2271258224,-1.0838498119,-0.0001360126\H,2.1149339995,-
 1.6781134217,0.0102346818\H,2.1637577734,0.7839941069,-0.0131520505\N,
 0.0954325154,2.3668216556,-0.0311579971\H,-2.1530323971,0.830815249,-0
 .0196550244\H,-2.1752906557,-1.6085078618,0.0035250792\H,-0.8501224132
 ,2.7545514207,-0.0362031785\C,-0.0048038955,-3.2740716878,0.0224470362
 \O,0.9758732159,-4.0155836822,0.0307815415\O,-1.2628841749,-3.87284716
 9,0.0264317656\H,-1.0540494652,-4.8167969238,0.0356909837\\Version=ES6
 4L-G16RevA.03\State=1-A\HF=-475.8064121\RMSD=2.434e-09\RMSF=1.106e-05\
 ZeroPoint=0.1178565\Thermal=0.126055\Dipole=-1.0392633,-1.3531526,0.01
 14848\DipoleDeriv=-0.5144258,-0.0384537,-0.0001407,0.0532648,-2.004684
 3,0.0177258,-0.0010189,0.017604,-0.1501708,0.2506007,0.5207244,-0.0044
 363,0.2523951,0.8475867,-0.0088685,-0.0018773,-0.0085121,-0.1215232,0.
 0330122,0.5654903,-0.0049886,-0.0477879,-0.7432613,0.0045895,0.0008419
 ,0.0054306,-0.2539347,0.0760055,0.0675367,-0.000621,0.0171861,1.739143
 ,-0.0159179,-0.0001047,-0.0158412,0.0653819,0.0140258,-0.6513411,0.006
 5575,0.0645809,-0.8156501,0.0055897,-0.0002966,0.0045712,-0.238717,0.2
 490101,-0.4977876,0.0052473,-0.3146524,0.9482825,-0.0105005,0.0035045,
 -0.0107452,-0.1080942,-0.0770773,0.0628478,-0.0008641,0.0975293,0.0482
 443,0.0007462,-0.0011941,0.000689,0.1120467,-0.1283558,-0.0777068,0.00
 03869,-0.1062215,-0.01356,0.0011595,0.0006613,0.0012067,0.1237979,-0.1
 364871,-0.2384639,0.0029005,-0.0533406,-1.9639522,0.0130891,0.001125,0
 .0128709,-0.5805913,-0.1467705,0.099447,-0.0013336,0.1274978,-0.059926
 8,0.0019643,-0.0015931,0.0019202,0.1277397,-0.0970962,-0.0783195,0.000
 4523,-0.0863725,0.0517916,0.0004298,0.0005361,0.0004379,0.1097482,-0.1
 818328,0.2114031,-0.002554,0.0331676,0.1548548,0.0004517,-0.0008533,0.
 0007045,0.1971216,1.4856871,-0.1978265,0.0035862,-0.0590705,3.4277466,
 -0.0307335,0.0022642,-0.0308236,0.206718,-1.0285516,1.0479252,-0.01080
 5,0.4374782,-1.8450454,0.0142582,-0.0049731,0.0150332,-0.4087987,-1.05
 81486,-0.9604267,0.0082262,-0.4559064,-1.0024988,0.0053756,0.0034052,0
 .0046481,-0.3734567,0.2604045,0.1649512,-0.0016137,0.0402522,0.2309294
 ,0.000641,-0.000427,0.0008059,0.2927326\Polar=101.4693083,-2.2260297,1
 93.2406114,0.0853697,-1.3147083,55.5165435\Quadrupole=7.613861,-16.274
 9862,8.6611252,-0.3633436,0.0023366,0.2366203\PG=C01 [X(C7H6N1O2)]\NIm
 ag=0\\0.63776677,-0.00801544,0.66935170,0.00081192,-0.00529660,0.11408
 156,-0.23661354,-0.07972656,0.00050918,0.65920471,-0.05061452,-0.13531
 408,0.00065468,-0.04186016,0.74211751,0.00023211,0.00061289,-0.0589997
 5,0.00113348,-0.00583082,0.13584159,0.01079070,-0.02462263,0.00023483,
 -0.12652864,-0.02509733,0.00013558,0.62856820,-0.04789946,-0.04012414,
 0.00041258,0.01490218,-0.41406176,0.00346469,0.06006283,0.75183249,0.0
 0045685,0.00044485,0.01019995,-0.00024487,0.00340953,-0.05234729,0.000
 14264,-0.00597129,0.11608334,-0.03871383,0.00254814,-0.00006665,0.0308
 3794,0.04325651,-0.00037018,-0.21730388,0.03370686,-0.00052363,0.57152
 215,0.00177697,0.01653973,-0.00023830,0.02644948,-0.03268512,0.0003588
 8,0.05389462,-0.12476938,0.00058208,-0.00886684,0.75584912,-0.00005963
 ,-0.00023707,-0.00869448,-0.00021045,0.00038366,0.00112520,-0.00071574
 ,0.00055358,-0.07141062,0.00063562,-0.00550615,0.18048460,0.01118608,0
 .02266398,-0.00021323,-0.00465922,-0.00077076,0.00000646,-0.03144605,-
 0.00290890,-0.00002604,-0.21218829,-0.05018586,0.00027326,0.61499836,0
 .04783001,-0.04345870,0.00057128,-0.01870120,-0.02119963,0.00013596,0.
 00434439,0.03226947,-0.00023793,-0.02422417,-0.12671911,0.00051913,-0.
 05367966,0.73471786,-0.00045258,0.00053582,0.00945478,0.00017722,0.000
 16106,-0.00416363,-0.00009465,-0.00024773,0.00666523,0.00002468,0.0004
 8129,-0.06859662,0.00123513,-0.00609538,0.10216841,-0.23942676,0.08553
 408,-0.00107502,-0.05608134,-0.00805282,-0.00001428,-0.00465419,0.0174
 1243,-0.00016718,0.02863243,-0.02957443,0.00032356,-0.12325446,-0.0258
 4598,0.00013755,0.66970502,0.05647820,-0.14061792,0.00089288,0.0103529
 0,0.03114122,-0.00020235,0.00137220,-0.02113351,0.00016846,-0.04877660
 ,-0.02905313,0.00020046,0.01623979,-0.40242601,0.00340473,0.04178575,0
 .72420493,-0.00079839,0.00093480,-0.05537112,-0.00018975,-0.00022983,0
 .00830710,-0.00001484,0.00019199,-0.00358751,0.00050660,0.00022674,-0.
 00076459,-0.00026279,0.00334587,-0.04697561,0.00036558,-0.00560572,0.1
 2914814,-0.02014015,0.01560831,-0.00018139,-0.25797272,0.11840857,-0.0
 0143617,0.00384446,-0.00186891,0.00001735,0.00163161,-0.00124684,-0.00
 000045,0.00063156,-0.00060560,0.00000644,-0.00356096,-0.00435670,0.000
 03270,0.27454548,-0.01200933,0.01155057,-0.00009587,0.12007463,-0.1288
 3245,0.00103755,0.02877962,-0.01247405,0.00019778,-0.00284264,-0.00388
 304,0.00013202,-0.00018008,-0.00040952,0.00000516,-0.00293808,-0.00147
 434,0.00003635,-0.13093293,0.13530347,0.00008098,-0.00005725,0.0032502
 6,-0.00145166,0.00103542,-0.03757234,-0.00027414,0.00015481,0.00409788
 ,0.00001455,0.00013438,0.01038796,0.00000236,0.00000470,0.00015862,0.0
 0001917,0.00003425,0.00278262,0.00159483,-0.00122410,0.02602200,0.0025
 2031,0.00030502,-0.00001125,0.00233017,0.00161317,-0.00001324,-0.26444
 637,-0.11426549,0.00076436,-0.02123365,-0.01804025,0.00013508,-0.00304
 332,0.00422643,-0.00004844,-0.00018532,0.00129795,-0.00001336,0.001216
 21,-0.00059151,0.00001522,0.28069620,0.00231387,-0.00452221,0.00012861
 ,-0.02958085,-0.01259261,0.00008555,-0.11507268,-0.11866607,0.00066885
 ,0.01442225,0.00960896,-0.00002464,0.00239601,-0.00157122,0.00004661,0
 .00060508,-0.00042368,0.00000958,0.00042583,0.00110494,-0.00006427,0.1
 2631591,0.12551961,-0.00003058,0.00012615,0.00864584,0.00028387,0.0001
 2878,0.00072607,0.00077125,0.00067045,-0.03158498,-0.00017313,-0.00007
 012,0.00489281,-0.00003117,0.00004926,0.00297834,-0.00000672,0.0000104
 1,0.00048405,0.00000567,-0.00006572,-0.00570717,-0.00084423,-0.0008008
 9,0.02293168,0.00920108,-0.00115954,0.00002502,-0.01070565,-0.00628569
 ,0.00004220,0.00567759,0.04488641,-0.00042700,-0.11001729,0.01319208,-
 0.00019884,0.00196729,-0.04516171,0.00039973,-0.01200747,0.00833308,-0
 .00010389,-0.00008145,0.00116301,-0.00001137,0.00287967,-0.00042312,0.
 00001112,0.45508270,-0.00175811,-0.01856776,0.00016867,0.00517424,0.01
 306652,-0.00009961,0.02710478,-0.05436721,0.00060360,-0.04707129,-0.43
 108773,0.00349230,-0.02414636,-0.05185819,0.00069680,-0.00450978,0.011
 69731,-0.00006812,0.00034064,-0.00062795,0.00000807,-0.00042669,0.0015
 9552,-0.00003743,-0.09801508,0.60160546,0.00003109,0.00016960,-0.00062
 137,-0.00006708,-0.00011607,0.00185840,-0.00025774,0.00062817,0.004833
 61,0.00037942,0.00357902,-0.05904796,0.00019767,0.00066550,0.02464862,
 0.00001840,-0.00005024,0.00515159,-0.00000365,0.00000946,0.00019372,0.
 00001128,-0.00003745,-0.00226554,0.00150692,-0.00539376,0.05212441,0.0
 0257703,-0.00034637,-0.00000495,-0.00017759,-0.00120011,0.00001074,-0.
 00338359,-0.00467627,0.00003539,-0.02070409,0.01976434,-0.00022114,-0.
 25427234,0.11295714,-0.00139555,0.00184042,-0.00157597,0.00001881,-0.0
 0001587,0.00011961,0.00000008,-0.00150353,0.00091175,-0.00001010,0.002
 02517,-0.00000093,0.00000627,0.27115976,-0.00256569,-0.00457098,0.0001
 1980,-0.00071704,-0.00068418,0.00000835,-0.00276518,-0.00062382,0.0000
 3144,-0.01342364,0.00575878,-0.00004906,0.11251844,-0.11940791,0.00104
 169,0.03033851,-0.01388598,0.00016673,0.00015600,-0.00000262,-0.000007
 97,-0.00062850,0.00050980,-0.00001045,-0.00079013,0.00385660,-0.000060
 73,-0.12450153,0.12889780,0.00001619,0.00012295,0.00839216,0.00000617,
 0.00000770,0.00030591,0.00001713,0.00002836,0.00306737,0.00009410,-0.0
 0000167,0.00262184,-0.00139038,0.00104217,-0.02655409,-0.00028496,0.00
 012157,-0.00087579,-0.00000030,-0.00000802,-0.00086432,0.00000450,-0.0
 0000824,-0.00049466,0.00001372,-0.00005965,-0.00239388,0.00153810,-0.0
 0120872,0.02026295,-0.01939191,-0.01519366,0.00011447,-0.00332971,0.00
 468575,-0.00005435,0.00066620,0.00056887,-0.00000424,0.00191390,0.0008
 4118,-0.00002031,0.00238821,0.00129705,-0.00001333,-0.26785346,-0.1126
 2064,0.00074465,-0.00130663,-0.00085687,0.00000501,-0.00000322,-0.0001
 4884,0.00000281,-0.00027278,-0.00040462,0.00000614,0.00130685,-0.00043
 884,0.00001311,0.28468666,0.01329323,0.01157515,-0.00007224,0.00307773
 ,-0.00165958,0.00005376,0.00012513,-0.00033218,0.00000167,0.00284012,-
 0.00440920,0.00014776,-0.02962179,-0.01158540,0.00009790,-0.11504553,-
 0.11968443,0.00064099,0.00085580,0.00051548,0.00000513,-0.00011564,0.0
 0002925,-0.00000979,-0.00170280,-0.00090692,-0.00001177,0.00056135,0.0
 0100400,-0.00005680,0.12524725,0.12712320,-0.00015697,-0.00011300,0.00
 202624,-0.00003904,0.00005635,0.00353538,0.00000009,0.00000231,-0.0001
 8029,-0.00003917,0.00014480,0.01068257,0.00028060,0.00014140,0.0031086
 8,0.00076823,0.00064494,-0.03536054,-0.00001134,0.00000266,0.00092562,
 0.00000246,-0.00000986,-0.00098262,0.00001835,-0.00001026,-0.00189621,
 0.00000364,-0.00005806,-0.00503732,-0.00082630,-0.00079816,0.02476909,
 0.00075736,-0.00069601,0.00000729,-0.00116673,0.00009606,-0.00000511,0
 .00314949,0.00242729,-0.00003400,-0.00933738,-0.00785177,0.00006366,0.
 00208324,-0.00585421,0.00006798,0.00005737,0.00119785,-0.00000966,0.00
 000882,0.00032493,-0.00000139,0.00071213,-0.00065650,0.00000816,-0.345
 75063,0.14335458,-0.00182832,0.00111702,0.00113423,-0.00000983,0.00004
 812,0.00017883,-0.00000231,0.34809875,-0.00079082,0.00019123,-0.000000
 35,0.00271107,0.00064762,0.00001459,-0.00283824,-0.00689336,0.00016404
 ,0.04879830,-0.02850860,0.00033281,0.00216044,0.00265041,-0.00008541,0
 .00027121,-0.00037554,-0.00000710,-0.00003570,-0.00053891,-0.00000629,
 0.00020496,0.00000824,-0.00000573,0.08565117,-0.08165920,0.00068775,-0
 .00191666,-0.00019683,0.00000365,0.00005614,0.00016486,0.00000307,-0.1
 3393437,0.11444464,0.00000801,-0.00000016,0.00026892,-0.00002993,0.000
 01092,0.00177614,0.00001691,0.00017094,0.01065811,-0.00047964,0.000253
 50,-0.00087565,-0.00000814,-0.00009632,-0.00659575,-0.00000074,-0.0000
 0603,-0.00115396,0.00000204,-0.00000566,-0.00118548,-0.00000009,-0.000
 00692,-0.00061917,-0.00127594,0.00076880,-0.02250751,0.00001930,0.0000
 0795,0.00046370,-0.00000113,0.00000317,0.00047343,0.00174578,-0.001099
 43,0.01934961,-0.10457715,-0.01151848,0.00005138,0.01019778,-0.0262235
 8,0.00027087,-0.00680932,-0.00478306,0.00003011,-0.00327305,0.00014785
 ,-0.00000385,-0.00747413,0.00368544,-0.00005281,0.00877048,0.02915858,
 -0.00025303,-0.00309614,-0.00145342,0.00001255,-0.00008089,-0.00149069
 ,0.00001151,0.00075448,-0.00074497,0.00000838,-0.00006346,0.00180479,-
 0.00002034,-0.00251009,0.00076568,-0.00000735,-0.00001646,-0.00003779,
 0.00000026,0.65693272,0.00449119,-0.24389939,0.00172561,-0.02789287,-0
 .04453045,0.00033736,-0.00618045,0.01707705,-0.00013159,-0.00147207,-0
 .01475841,0.00012368,0.00745760,0.01782665,-0.00011148,0.02456085,-0.0
 4087851,0.00033984,0.00442311,0.00052891,-0.00001974,0.00058894,0.0006
 5251,0.00001246,0.00142440,0.01767368,-0.00016791,-0.00066177,0.000719
 91,0.00001339,-0.00375519,0.00106084,-0.00003835,0.00000821,-0.0001060
 2,0.00000138,-0.17058271,0.75720172,-0.00010119,0.00170255,-0.06329155
 ,0.00028620,0.00033763,-0.00510743,0.00004351,-0.00012916,0.00416871,0
 .00001133,0.00012578,-0.00157813,-0.00008844,-0.00011664,0.00500901,-0
 .00020864,0.00034662,-0.00873308,-0.00004306,-0.00002802,-0.00221446,-
 0.00000832,0.00000984,0.00190610,-0.00001215,-0.00017032,-0.00013275,0
 .00000308,0.00001683,0.00222608,0.00003572,-0.00003226,-0.00244328,-0.
 00000013,0.00000134,0.00004205,0.00222753,-0.00550162,0.20205073,-0.00
 219105,0.03975472,-0.00040448,-0.01019381,-0.01042373,0.00008588,0.000
 46682,0.00511988,-0.00004777,-0.00115059,-0.00322161,0.00002852,0.0029
 1050,0.00373913,-0.00003012,0.00513284,-0.00622072,0.00005668,0.003764
 41,0.00048412,0.00000122,0.00018223,0.00027433,-0.00000241,0.00097208,
 0.00487043,-0.00004513,-0.00008526,0.00012870,0.00000012,0.00065453,-0
 .00067372,0.00000710,0.00014128,-0.00019613,0.00000216,-0.40607658,0.2
 2592821,-0.00258188,0.50801810,0.04564751,-0.04938880,0.00070051,0.008
 20171,0.00799192,-0.00007053,0.00253915,-0.00459336,0.00004482,0.00222
 552,0.00525583,-0.00004350,-0.00037659,-0.00687304,0.00005520,-0.01136
 690,0.00233662,0.00002922,-0.00056383,-0.00107648,0.00000650,-0.000380
 69,-0.00035685,0.00000254,-0.00126829,-0.00698665,0.00006565,0.0002826
 8,-0.00108780,0.00000055,0.00097683,0.00031287,0.00000093,0.00006457,0
 .00018247,-0.00000235,0.23052773,-0.29369415,0.00236562,-0.28410391,0.
 31047488,-0.00046027,0.00069400,0.01789975,-0.00009100,-0.00009560,-0.
 00058646,-0.00002313,0.00004812,-0.00026509,-0.00002314,-0.00005106,0.
 00035607,0.00000914,0.00006056,-0.00103954,0.00010468,0.00003700,0.007
 13312,0.00001089,0.00000804,-0.00029978,0.00000391,0.00000338,-0.00004
 000,0.00001321,0.00007383,0.00008476,-0.00000128,0.00000023,-0.0010786
 2,-0.00000878,-0.00000119,0.00028376,-0.00000031,-0.00000271,-0.000074
 54,-0.00262396,0.00235718,-0.07676513,0.00332617,-0.00299644,0.0346039
 9,-0.00667286,-0.02504096,0.00021372,0.00441079,0.00416588,-0.00003850
 ,0.00206688,-0.00277945,0.00002957,-0.00036209,0.00311004,-0.00003030,
 -0.00033702,-0.00437630,0.00004188,-0.00662797,0.00691574,-0.00007529,
 0.00067170,0.00094659,-0.00000796,-0.00005836,-0.00017517,0.00000248,0
 .00013120,-0.00419521,0.00003997,0.00021709,-0.00030379,0.00000319,0.0
 0242094,0.00021427,0.00000077,0.00011825,-0.00008281,0.00000106,-0.153
 17789,-0.00324874,-0.00009586,-0.10264143,-0.00125289,-0.00015960,0.32
 964558,-0.04450211,-0.03139009,0.00034426,0.00726765,-0.00212050,0.000
 06469,-0.00099163,-0.00356626,0.00003068,-0.00115135,0.00318856,-0.000
 03114,-0.00178590,-0.00234121,0.00001483,-0.00327759,0.00023689,-0.000
 00320,-0.00047757,0.00036377,-0.00000441,-0.00013829,-0.00080832,0.000
 00146,0.00013745,-0.00390089,0.00003911,0.00029905,-0.00027620,0.00000
 299,-0.00022020,-0.00329454,0.00003496,0.00020634,-0.00001038,-0.00000
 035,-0.04399488,-0.13546338,0.00066644,0.01638134,0.03326367,-0.000053
 66,-0.05585012,0.60745341,0.00039934,0.00037093,0.01119085,-0.00006807
 ,0.00006022,0.00358656,0.00001262,0.00002822,-0.00018704,0.00001036,-0
 .00002505,0.00010390,0.00001726,0.00001133,-0.00050583,0.00002133,0.00
 001061,0.00034160,0.00000548,-0.00000247,-0.00002850,0.00000211,0.0000
 0140,-0.00063588,-0.00000138,0.00003290,0.00016983,-0.00000254,0.00000
 212,-0.00000858,0.00000495,0.00003552,0.00039216,-0.00000170,-0.000000
 74,-0.00007597,0.00029049,0.00072239,-0.05910810,-0.00032598,-0.000077
 95,0.02529016,0.00093487,-0.00557241,0.02952293,-0.00707209,-0.0000946
 0,-0.00001084,0.00044755,-0.00169723,0.00001452,-0.00065831,0.00009479
 ,-0.00000155,-0.00025390,-0.00018900,0.00000102,0.00050959,0.00036923,
 -0.00000312,-0.00048663,0.00041860,-0.00000404,-0.00014035,-0.00008767
 ,0.00000056,0.00001775,-0.00011718,0.00000145,0.00014402,0.00042838,-0
 .00000361,-0.00003760,0.00005368,-0.00000052,0.00058238,0.00000010,0.0
 0000124,-0.00002062,-0.00002079,0.00000009,0.01049971,-0.05508872,0.00
 053228,0.00009593,0.00884739,-0.00007651,-0.06980481,0.12809782,-0.001
 29914,0.06617739,-0.00367550,0.00264569,-0.00001552,0.00026709,-0.0012
 8442,0.00002903,-0.00065461,0.00042610,-0.00000697,0.00003089,-0.00032
 727,0.00000616,0.00021965,0.00038556,-0.00000107,0.00010320,0.00033607
 ,-0.00000815,-0.00013017,-0.00004779,0.00000078,0.00003465,-0.00008787
 ,-0.00000137,0.00001876,0.00046740,-0.00000634,-0.00001629,-0.00001056
 ,-0.00000023,-0.00003422,0.00008660,-0.00000372,-0.00000001,-0.0000006
 5,0.00000054,-0.00526050,-0.03941094,0.00040537,0.00815896,0.00423887,
 -0.00008167,0.08195292,-0.46133454,0.00440298,-0.08101483,0.49391775,0
 .00002314,-0.00001045,0.00156796,-0.00000427,0.00002636,0.00171455,0.0
 0000567,-0.00000604,-0.00021139,-0.00000113,0.00000590,0.00031312,-0.0
 0000170,-0.00000089,0.00023938,-0.00000098,-0.00000758,-0.00052601,0.0
 0000097,0.00000084,0.00005337,0.00000002,-0.00000156,-0.00023488,0.000
 00031,-0.00000582,-0.00019972,0.00000015,-0.00000014,-0.00003275,0.000
 00158,-0.00000368,-0.00029666,-0.00000011,0.00000051,0.00005607,0.0000
 5826,0.00033739,0.00397123,-0.00007006,-0.00008078,-0.00550247,-0.0008
 6001,0.00446574,-0.01004810,0.00084815,-0.00471980,0.00913630\\-0.0000
 0646,-0.00003817,-0.00000118,0.00000032,-0.00001828,0.00000093,0.00000
 144,0.00001319,-0.00000445,0.00000932,-0.00000353,0.00001296,-0.000008
 04,0.00000157,-0.00000385,-0.00000900,-0.00000439,-0.00000375,-0.00000
 041,0.00000186,0.00000042,-0.00000106,-0.00000397,-0.00000016,-0.00000
 655,0.00000444,-0.00000422,0.00000262,-0.00000086,0.00000086,0.0000015
 5,0.00000002,0.00000082,0.00000308,0.00000209,-0.00000056,0.00003912,0
 .,0.00000907,-0.00001827,0.00001797,-0.00000481,-0.00001937,0.00001889
 ,-0.00000271,0.00001170,0.00000917,0.00000063\\\@


 Standing in the middle of the road is very dangerous;
 you get knocked down by the traffic from both sides.
                                -- Margaret Thatcher
 Job cpu time:       0 days  0 hours 23 minutes 27.8 seconds.
 Elapsed time:       0 days  0 hours 23 minutes 29.6 seconds.
 File lengths (MBytes):  RWF=    173 Int=      0 D2E=      0 Chk=     11 Scr=      1
 Normal termination of Gaussian 16 at Thu Jan 23 10:38:39 2025.
