 Entering Gaussian System, Link 0=g16
 Initial command:
 /sw/cluster/pub/apps//g16/l1.exe "/data/mmaximo/28125/Gau-1013708.inp" -scrdir="/data/mmaximo/28125/"
 Entering Link 1 = /sw/cluster/pub/apps//g16/l1.exe PID=   1013709.
  
 Copyright (c) 1988,1990,1992,1993,1995,1998,2003,2009,2016,
            Gaussian, Inc.  All Rights Reserved.
  
 This is part of the Gaussian(R) 16 program.  It is based on
 the Gaussian(R) 09 system (copyright 2009, Gaussian, Inc.),
 the Gaussian(R) 03 system (copyright 2003, Gaussian, Inc.),
 the Gaussian(R) 98 system (copyright 1998, Gaussian, Inc.),
 the Gaussian(R) 94 system (copyright 1995, Gaussian, Inc.),
 the Gaussian 92(TM) system (copyright 1992, Gaussian, Inc.),
 the Gaussian 90(TM) system (copyright 1990, Gaussian, Inc.),
 the Gaussian 88(TM) system (copyright 1988, Gaussian, Inc.),
 the Gaussian 86(TM) system (copyright 1986, Carnegie Mellon
 University), and the Gaussian 82(TM) system (copyright 1983,
 Carnegie Mellon University). Gaussian is a federally registered
 trademark of Gaussian, Inc.
  
 This software contains proprietary and confidential information,
 including trade secrets, belonging to Gaussian, Inc.
  
 This software is provided under written license and may be
 used, copied, transmitted, or stored only in accord with that
 written license.
  
 The following legend is applicable only to US Government
 contracts under FAR:
  
                    RESTRICTED RIGHTS LEGEND
  
 Use, reproduction and disclosure by the US Government is
 subject to restrictions as set forth in subparagraphs (a)
 and (c) of the Commercial Computer Software - Restricted
 Rights clause in FAR 52.227-19.
  
 Gaussian, Inc.
 340 Quinnipiac St., Bldg. 40, Wallingford CT 06492
  
  
 ---------------------------------------------------------------
 Warning -- This program may not be used in any manner that
 competes with the business of Gaussian, Inc. or will provide
 assistance to any competitor of Gaussian, Inc.  The licensee
 of this program is prohibited from giving any competitor of
 Gaussian, Inc. access to this program.  By using this program,
 the user acknowledges that Gaussian, Inc. is engaged in the
 business of creating and licensing software in the field of
 computational chemistry and represents and warrants to the
 licensee that it is not a competitor of Gaussian, Inc. and that
 it will not use this program in any manner prohibited above.
 ---------------------------------------------------------------
  

 Cite this work as:
 Gaussian 16, Revision A.03,
 M. J. Frisch, G. W. Trucks, H. B. Schlegel, G. E. Scuseria, 
 M. A. Robb, J. R. Cheeseman, G. Scalmani, V. Barone, 
 G. A. Petersson, H. Nakatsuji, X. Li, M. Caricato, A. V. Marenich, 
 J. Bloino, B. G. Janesko, R. Gomperts, B. Mennucci, H. P. Hratchian, 
 J. V. Ortiz, A. F. Izmaylov, J. L. Sonnenberg, D. Williams-Young, 
 F. Ding, F. Lipparini, F. Egidi, J. Goings, B. Peng, A. Petrone, 
 T. Henderson, D. Ranasinghe, V. G. Zakrzewski, J. Gao, N. Rega, 
 G. Zheng, W. Liang, M. Hada, M. Ehara, K. Toyota, R. Fukuda, 
 J. Hasegawa, M. Ishida, T. Nakajima, Y. Honda, O. Kitao, H. Nakai, 
 T. Vreven, K. Throssell, J. A. Montgomery, Jr., J. E. Peralta, 
 F. Ogliaro, M. J. Bearpark, J. J. Heyd, E. N. Brothers, K. N. Kudin, 
 V. N. Staroverov, T. A. Keith, R. Kobayashi, J. Normand, 
 K. Raghavachari, A. P. Rendell, J. C. Burant, S. S. Iyengar, 
 J. Tomasi, M. Cossi, J. M. Millam, M. Klene, C. Adamo, R. Cammi, 
 J. W. Ochterski, R. L. Martin, K. Morokuma, O. Farkas, 
 J. B. Foresman, and D. J. Fox, Gaussian, Inc., Wallingford CT, 2016.
 
 ******************************************
 Gaussian 16:  ES64L-G16RevA.03 25-Dec-2016
                22-Jan-2025 
 ******************************************
 %chk=C6H5CH2-o.chk
 ----------------------------------------------
 # opt=(tight,modredundant) freq b3lyp def2tzvp
 ----------------------------------------------
 1/7=10,18=120,19=15,26=3,38=1/1,3;
 2/9=110,12=2,17=6,18=5,40=1/2;
 3/5=44,7=101,11=2,25=1,30=1,71=1,74=-5/1,2,3;
 4//1;
 5/5=2,38=5/2;
 6/7=2,8=2,9=2,10=2,28=1/1;
 7//1,2,3,16;
 1/7=10,18=20,19=15,26=3/3(2);
 2/9=110/2;
 99//99;
 2/9=110/2;
 3/5=44,7=101,11=2,25=1,30=1,71=1,74=-5/1,2,3;
 4/5=5,16=3,69=1/1;
 5/5=2,38=5/2;
 7//1,2,3,16;
 1/7=10,18=20,19=15,26=3/3(-5);
 2/9=110/2;
 6/7=2,8=2,9=2,10=2,19=2,28=1/1;
 99/9=1/99;
 ---
 opt
 ---
 Symbolic Z-matrix:
 Charge = -1 Multiplicity = 1
 C                    -0.0381   -1.85072  -0.04252 
 C                     1.18922  -1.1743   -0.034 
 C                     1.21703   0.22669  -0.01423 
 C                     0.01753   0.95125  -0.00298 
 C                    -1.20978   0.27483  -0.0115 
 C                    -1.2376   -1.12615  -0.03127 
 H                     2.10506  -1.72752  -0.04258 
 H                     2.15412   0.74315  -0.00772 
 H                    -2.12563   0.82805  -0.00292 
 H                    -2.17468  -1.64261  -0.03778 
 C                     0.0481    2.49079   0.01875 
 H                     0.0595    3.01254   0.95285 
 H                     0.05794   3.03873  -0.90026 
 C                    -0.06866  -3.39026  -0.06424 
 O                     1.00844  -4.04089  -0.07434 
 O                    -1.32103  -4.08049  -0.07293 
 H                    -1.22253  -4.92773   0.36761 
 
 The following ModRedundant input section has been read:
 D       5       4      11      12 90.000 B                                    
 D       5       4      11      13 90.000 B                                    
 
 Iteration  1 RMS(Cart)=  0.01905627 RMS(Int)=  0.34735540
 Iteration  2 RMS(Cart)=  0.01128147 RMS(Int)=  0.34000188
 Iteration  3 RMS(Cart)=  0.00646733 RMS(Int)=  0.33585414
 Iteration  4 RMS(Cart)=  0.00370792 RMS(Int)=  0.33350137
 Iteration  5 RMS(Cart)=  0.00212412 RMS(Int)=  0.33216238
 Iteration  6 RMS(Cart)=  0.00121567 RMS(Int)=  0.33139904
 Iteration  7 RMS(Cart)=  0.00069526 RMS(Int)=  0.33096347
 Iteration  8 RMS(Cart)=  0.00039746 RMS(Int)=  0.33071479
 Iteration  9 RMS(Cart)=  0.00022715 RMS(Int)=  0.33057278
 Iteration 10 RMS(Cart)=  0.00012980 RMS(Int)=  0.33049166
 Iteration 11 RMS(Cart)=  0.00007416 RMS(Int)=  0.33044533
 Iteration 12 RMS(Cart)=  0.00004237 RMS(Int)=  0.33041886
 Iteration 13 RMS(Cart)=  0.00002421 RMS(Int)=  0.33040374
 Iteration 14 RMS(Cart)=  0.00001383 RMS(Int)=  0.33039510
 Iteration 15 RMS(Cart)=  0.00000790 RMS(Int)=  0.33039017
 Iteration 16 RMS(Cart)=  0.00000451 RMS(Int)=  0.33038735
 Iteration 17 RMS(Cart)=  0.00000258 RMS(Int)=  0.33038574
 Iteration 18 RMS(Cart)=  0.00000147 RMS(Int)=  0.33038482
 Iteration 19 RMS(Cart)=  0.00000084 RMS(Int)=  0.33038429

 GradGradGradGradGradGradGradGradGradGradGradGradGradGradGradGradGradGrad
 Berny optimization.
 Initialization pass.
                           ----------------------------
                           !    Initial Parameters    !
                           ! (Angstroms and Degrees)  !
 --------------------------                            --------------------------
 ! Name  Definition              Value          Derivative Info.                !
 --------------------------------------------------------------------------------
 ! R1    R(1,2)                  1.4009         estimate D2E/DX2                !
 ! R2    R(1,6)                  1.4009         estimate D2E/DX2                !
 ! R3    R(1,14)                 1.54           estimate D2E/DX2                !
 ! R4    R(2,3)                  1.4014         estimate D2E/DX2                !
 ! R5    R(2,7)                  1.07           estimate D2E/DX2                !
 ! R6    R(3,4)                  1.4019         estimate D2E/DX2                !
 ! R7    R(3,8)                  1.07           estimate D2E/DX2                !
 ! R8    R(4,5)                  1.4019         estimate D2E/DX2                !
 ! R9    R(4,11)                 1.54           estimate D2E/DX2                !
 ! R10   R(5,6)                  1.4014         estimate D2E/DX2                !
 ! R11   R(5,9)                  1.07           estimate D2E/DX2                !
 ! R12   R(6,10)                 1.07           estimate D2E/DX2                !
 ! R13   R(11,12)                1.07           estimate D2E/DX2                !
 ! R14   R(11,13)                1.07           estimate D2E/DX2                !
 ! R15   R(14,15)                1.2584         estimate D2E/DX2                !
 ! R16   R(14,16)                1.43           estimate D2E/DX2                !
 ! R17   R(16,17)                0.96           estimate D2E/DX2                !
 ! A1    A(2,1,6)              119.9536         estimate D2E/DX2                !
 ! A2    A(2,1,14)             120.0227         estimate D2E/DX2                !
 ! A3    A(6,1,14)             120.0227         estimate D2E/DX2                !
 ! A4    A(1,2,3)              120.0102         estimate D2E/DX2                !
 ! A5    A(1,2,7)              119.9924         estimate D2E/DX2                !
 ! A6    A(3,2,7)              119.9968         estimate D2E/DX2                !
 ! A7    A(2,3,4)              120.1119         estimate D2E/DX2                !
 ! A8    A(2,3,8)              119.946          estimate D2E/DX2                !
 ! A9    A(4,3,8)              119.9416         estimate D2E/DX2                !
 ! A10   A(3,4,5)              119.7732         estimate D2E/DX2                !
 ! A11   A(3,4,11)             120.0486         estimate D2E/DX2                !
 ! A12   A(5,4,11)             120.0486         estimate D2E/DX2                !
 ! A13   A(4,5,6)              120.1119         estimate D2E/DX2                !
 ! A14   A(4,5,9)              119.9416         estimate D2E/DX2                !
 ! A15   A(6,5,9)              119.946          estimate D2E/DX2                !
 ! A16   A(1,6,5)              120.0102         estimate D2E/DX2                !
 ! A17   A(1,6,10)             119.9924         estimate D2E/DX2                !
 ! A18   A(5,6,10)             119.9968         estimate D2E/DX2                !
 ! A19   A(4,11,12)            119.5493         estimate D2E/DX2                !
 ! A20   A(4,11,13)            119.5493         estimate D2E/DX2                !
 ! A21   A(12,11,13)           119.5367         estimate D2E/DX2                !
 ! A22   A(1,14,15)            120.0            estimate D2E/DX2                !
 ! A23   A(1,14,16)            120.0            estimate D2E/DX2                !
 ! A24   A(15,14,16)           120.0            estimate D2E/DX2                !
 ! A25   A(14,16,17)           109.4712         estimate D2E/DX2                !
 ! D1    D(6,1,2,3)             -0.3158         estimate D2E/DX2                !
 ! D2    D(6,1,2,7)            179.4137         estimate D2E/DX2                !
 ! D3    D(14,1,2,3)          -179.9551         estimate D2E/DX2                !
 ! D4    D(14,1,2,7)            -0.2256         estimate D2E/DX2                !
 ! D5    D(2,1,6,5)              0.3158         estimate D2E/DX2                !
 ! D6    D(2,1,6,10)          -179.4137         estimate D2E/DX2                !
 ! D7    D(14,1,6,5)           179.9551         estimate D2E/DX2                !
 ! D8    D(14,1,6,10)            0.2256         estimate D2E/DX2                !
 ! D9    D(2,1,14,15)           -0.1806         estimate D2E/DX2                !
 ! D10   D(2,1,14,16)          179.8194         estimate D2E/DX2                !
 ! D11   D(6,1,14,15)         -179.8197         estimate D2E/DX2                !
 ! D12   D(6,1,14,16)            0.1803         estimate D2E/DX2                !
 ! D13   D(1,2,3,4)             -0.8113         estimate D2E/DX2                !
 ! D14   D(1,2,3,8)            179.4589         estimate D2E/DX2                !
 ! D15   D(7,2,3,4)            179.4592         estimate D2E/DX2                !
 ! D16   D(7,2,3,8)             -0.2706         estimate D2E/DX2                !
 ! D17   D(2,3,4,5)              1.9323         estimate D2E/DX2                !
 ! D18   D(2,3,4,11)           177.7961         estimate D2E/DX2                !
 ! D19   D(8,3,4,5)           -178.3379         estimate D2E/DX2                !
 ! D20   D(8,3,4,11)            -2.4741         estimate D2E/DX2                !
 ! D21   D(3,4,5,6)             -1.9323         estimate D2E/DX2                !
 ! D22   D(3,4,5,9)            178.3379         estimate D2E/DX2                !
 ! D23   D(11,4,5,6)          -177.7961         estimate D2E/DX2                !
 ! D24   D(11,4,5,9)             2.4741         estimate D2E/DX2                !
 ! D25   D(3,4,11,12)          -87.9729         estimate D2E/DX2                !
 ! D26   D(3,4,11,13)           78.6345         estimate D2E/DX2                !
 ! D27   D(5,4,11,12)           87.8795         estimate D2E/DX2                !
 ! D28   D(5,4,11,13)         -105.5132         estimate D2E/DX2                !
 ! D29   D(4,5,6,1)              0.8113         estimate D2E/DX2                !
 ! D30   D(4,5,6,10)          -179.4592         estimate D2E/DX2                !
 ! D31   D(9,5,6,1)           -179.4589         estimate D2E/DX2                !
 ! D32   D(9,5,6,10)             0.2706         estimate D2E/DX2                !
 ! D33   D(1,14,16,17)        -150.0            estimate D2E/DX2                !
 ! D34   D(15,14,16,17)         30.0            estimate D2E/DX2                !
 --------------------------------------------------------------------------------
 Trust Radius=3.00D-01 FncErr=1.00D-07 GrdErr=1.00D-06 EigMax=2.50D+02 EigMin=1.00D-04
 Number of steps in this run=     86 maximum allowed number of steps=    102.
 GradGradGradGradGradGradGradGradGradGradGradGradGradGradGradGradGradGrad

                          Input orientation:                          
 ---------------------------------------------------------------------
 Center     Atomic      Atomic             Coordinates (Angstroms)
 Number     Number       Type             X           Y           Z
 ---------------------------------------------------------------------
      1          6           0       -0.043859   -1.849914   -0.048861
      2          6           0        1.178430   -1.165340   -0.048227
      3          6           0        1.196993    0.235890   -0.036779
      4          6           0       -0.006200    0.955265   -0.043117
      5          6           0       -1.228045    0.268412   -0.019912
      6          6           0       -1.247224   -1.132811   -0.031355
      7          1           0        2.097940   -1.712503   -0.052110
      8          1           0        2.131124    0.757631   -0.027550
      9          1           0       -2.147631    0.815012    0.002211
     10          1           0       -2.181040   -1.655119   -0.022347
     11          6           0        0.014877    2.493797    0.020725
     12          1           0        0.027291    2.982326    0.972610
     13          1           0        0.232627    3.055701   -0.863440
     14          6           0       -0.064589   -3.389731   -0.060394
     15          8           0        1.016623   -4.033470   -0.072688
     16          8           0       -1.312489   -4.088040   -0.057133
     17          1           0       -1.205901   -4.931733    0.388311
 ---------------------------------------------------------------------
                    Distance matrix (angstroms):
                    1          2          3          4          5
     1  C    0.000000
     2  C    1.400939   0.000000
     3  C    2.427022   1.401400   0.000000
     4  C    2.805437   2.429062   1.401860   0.000000
     5  C    2.427022   2.801351   2.425314   1.401860   0.000000
     6  C    1.400939   2.425931   2.801351   2.429062   1.401400
     7  H    2.146204   1.070000   2.146666   3.397715   3.871334
     8  H    3.395629   2.146129   1.070000   2.146498   3.394614
     9  H    3.395629   3.871307   3.394614   2.146498   1.070000
    10  H    2.146204   3.395084   3.871334   3.397715   2.146666
    11  C    4.344665   3.840299   2.549284   1.540000   2.549284
    12  H    4.939535   4.423840   3.151187   2.267554   3.150603
    13  H    4.980466   4.401853   3.092686   2.267554   3.257926
    14  C    1.540000   2.548168   3.838916   4.345423   3.838916
    15  O    2.427572   2.872794   4.273319   5.092594   4.852577
    16  O    2.572683   3.840173   4.999428   5.209752   4.357429
    17  H    3.322510   4.478986   5.714799   6.023468   5.216190
                    6          7          8          9         10
     6  C    0.000000
     7  H    3.395084   0.000000
     8  H    3.871307   2.470479   0.000000
     9  H    2.146129   4.941270   4.279243   0.000000
    10  H    1.070000   4.279468   4.941270   2.470479   0.000000
    11  C    3.840299   4.694402   2.737718   2.737718   4.694402
    12  H    4.423425   5.232500   3.221133   3.220126   5.231880
    13  H    4.519508   5.183958   3.095825   3.381666   5.359576
    14  C    2.548168   2.736730   4.692850   4.692850   2.736730
    15  O    3.679747   2.560577   4.919227   5.790154   3.985491
    16  O    2.956062   4.156227   5.944735   4.974023   2.583543
    17  H    3.822256   4.633872   6.608899   5.836181   3.443216
                   11         12         13         14         15
    11  C    0.000000
    12  H    1.070000   0.000000
    13  H    1.070000   1.848953   0.000000
    14  C    5.884624   6.455900   6.502062   0.000000
    15  O    6.604349   7.161900   7.176091   1.258400   0.000000
    16  O    6.714800   7.269488   7.353268   1.430000   2.329803
    17  H    7.534183   8.030847   8.211903   1.970203   2.441108
                   16         17
    16  O    0.000000
    17  H    0.960000   0.000000
 Stoichiometry    C8H7O2(1-)
 Framework group  C1[X(C8H7O2)]
 Deg. of freedom    45
 Full point group                 C1      NOp   1
 Largest Abelian subgroup         C1      NOp   1
 Largest concise Abelian subgroup C1      NOp   1
                         Standard orientation:                         
 ---------------------------------------------------------------------
 Center     Atomic      Atomic             Coordinates (Angstroms)
 Number     Number       Type             X           Y           Z
 ---------------------------------------------------------------------
      1          6           0        0.620639    0.050267   -0.012613
      2          6           0       -0.120165    1.239221    0.002517
      3          6           0       -1.520781    1.192396    0.004689
      4          6           0       -2.183229   -0.042703   -0.025429
      5          6           0       -1.440313   -1.231489   -0.016701
      6          6           0       -0.039677   -1.185280   -0.018878
      7          1           0        0.383548    2.183133    0.016792
      8          1           0       -2.085551    2.100978    0.025006
      9          1           0       -1.943572   -2.175742   -0.012735
     10          1           0        0.525534   -2.093813   -0.020950
     11          6           0       -3.721430   -0.094242    0.028232
     12          1           0       -4.215794   -0.119783    0.976838
     13          1           0       -4.287482    0.111238   -0.856225
     14          6           0        2.159790    0.101375   -0.013958
     15          8           0        2.752485    1.211421   -0.004899
     16          8           0        2.915484   -1.112582   -0.025502
     17          1           0        3.750563   -0.973996    0.427309
 ---------------------------------------------------------------------
 Rotational constants (GHZ):           3.7321780           0.7719262           0.6427562
 Standard basis: def2TZVP (5D, 7F)
 There are   402 symmetry adapted cartesian basis functions of A   symmetry.
 There are   352 symmetry adapted basis functions of A   symmetry.
   352 basis functions,   566 primitive gaussians,   402 cartesian basis functions
    36 alpha electrons       36 beta electrons
       nuclear repulsion energy       464.6050926998 Hartrees.
 NAtoms=   17 NActive=   17 NUniq=   17 SFac= 1.00D+00 NAtFMM=   60 NAOKFM=F Big=F
 Integral buffers will be    131072 words long.
 Raffenetti 2 integral format.
 Two-electron integral symmetry is turned on.
 One-electron integrals computed using PRISM.
   1 Symmetry operations used in ECPInt.
 ECPInt:  NShTT=    9591 NPrTT=   29644 LenC2=    9106 LenP2D=   21843.
 LDataN:  DoStor=T MaxTD1= 6 Len=  172
 NBasis=   352 RedAO= T EigKep=  8.17D-06  NBF=   352
 NBsUse=   352 1.00D-06 EigRej= -1.00D+00 NBFU=   352
 ExpMin= 9.52D-02 ExpMax= 2.70D+04 ExpMxC= 9.22D+02 IAcc=3 IRadAn=         5 AccDes= 0.00D+00
 Harris functional with IExCor=  402 and IRadAn=       5 diagonalized for initial guess.
 HarFok:  IExCor=  402 AccDes= 0.00D+00 IRadAn=         5 IDoV= 1 UseB2=F ITyADJ=14
 ICtDFT=  3500011 ScaDFX=  1.000000  1.000000  1.000000  1.000000
 FoFCou: FMM=F IPFlag=           0 FMFlag=      100000 FMFlg1=           0
         NFxFlg=           0 DoJE=T BraDBF=F KetDBF=T FulRan=T
         wScrn=  0.000000 ICntrl=       500 IOpCl=  0 I1Cent=   200000004 NGrid=           0
         NMat0=    1 NMatS0=      1 NMatT0=    0 NMatD0=    1 NMtDS0=    0 NMtDT0=    0
 Petite list used in FoFCou.
 Requested convergence on RMS density matrix=1.00D-08 within 128 cycles.
 Requested convergence on MAX density matrix=1.00D-06.
 Requested convergence on             energy=1.00D-06.
 No special actions if energy rises.
 Integral accuracy reduced to 1.0D-05 until final iterations.
 EnCoef did     3 forward-backward iterations
 EnCoef did     4 forward-backward iterations
 Initial convergence to 1.0D-05 achieved.  Increase integral accuracy.
 SCF Done:  E(RB3LYP) =  -459.648430916     A.U. after   23 cycles
            NFock= 23  Conv=0.44D-08     -V/T= 2.0055

 **********************************************************************

            Population analysis using the SCF density.

 **********************************************************************

 Orbital symmetries:
       Occupied  (A) (A) (A) (A) (A) (A) (A) (A) (A) (A) (A) (A)
                 (A) (A) (A) (A) (A) (A) (A) (A) (A) (A) (A) (A)
                 (A) (A) (A) (A) (A) (A) (A) (A) (A) (A) (A) (A)
       Virtual   (A) (A) (A) (A) (A) (A) (A) (A) (A) (A) (A) (A)
                 (A) (A) (A) (A) (A) (A) (A) (A) (A) (A) (A) (A)
                 (A) (A) (A) (A) (A) (A) (A) (A) (A) (A) (A) (A)
                 (A) (A) (A) (A) (A) (A) (A) (A) (A) (A) (A) (A)
                 (A) (A) (A) (A) (A) (A) (A) (A) (A) (A) (A) (A)
                 (A) (A) (A) (A) (A) (A) (A) (A) (A) (A) (A) (A)
                 (A) (A) (A) (A) (A) (A) (A) (A) (A) (A) (A) (A)
                 (A) (A) (A) (A) (A) (A) (A) (A) (A) (A) (A) (A)
                 (A) (A) (A) (A) (A) (A) (A) (A) (A) (A) (A) (A)
                 (A) (A) (A) (A) (A) (A) (A) (A) (A) (A) (A) (A)
                 (A) (A) (A) (A) (A) (A) (A) (A) (A) (A) (A) (A)
                 (A) (A) (A) (A) (A) (A) (A) (A) (A) (A) (A) (A)
                 (A) (A) (A) (A) (A) (A) (A) (A) (A) (A) (A) (A)
                 (A) (A) (A) (A) (A) (A) (A) (A) (A) (A) (A) (A)
                 (A) (A) (A) (A) (A) (A) (A) (A) (A) (A) (A) (A)
                 (A) (A) (A) (A) (A) (A) (A) (A) (A) (A) (A) (A)
                 (A) (A) (A) (A) (A) (A) (A) (A) (A) (A) (A) (A)
                 (A) (A) (A) (A) (A) (A) (A) (A) (A) (A) (A) (A)
                 (A) (A) (A) (A) (A) (A) (A) (A) (A) (A) (A) (A)
                 (A) (A) (A) (A) (A) (A) (A) (A) (A) (A) (A) (A)
                 (A) (A) (A) (A) (A) (A) (A) (A) (A) (A) (A) (A)
                 (A) (A) (A) (A) (A) (A) (A) (A) (A) (A) (A) (A)
                 (A) (A) (A) (A) (A) (A) (A) (A) (A) (A) (A) (A)
                 (A) (A) (A) (A) (A) (A) (A) (A) (A) (A) (A) (A)
                 (A) (A) (A) (A) (A) (A) (A) (A) (A) (A) (A) (A)
                 (A) (A) (A) (A) (A) (A) (A) (A) (A) (A) (A) (A)
                 (A) (A) (A) (A)
 The electronic state is 1-A.
 Alpha  occ. eigenvalues --  -19.04536 -18.98070 -10.17925 -10.05172 -10.03691
 Alpha  occ. eigenvalues --  -10.03504 -10.02738 -10.02199 -10.01970  -9.93217
 Alpha  occ. eigenvalues --   -0.94950  -0.86742  -0.71063  -0.61487  -0.60216
 Alpha  occ. eigenvalues --   -0.51845  -0.46939  -0.45578  -0.41822  -0.38324
 Alpha  occ. eigenvalues --   -0.35034  -0.31326  -0.31035  -0.29706  -0.28628
 Alpha  occ. eigenvalues --   -0.28127  -0.25223  -0.23509  -0.20656  -0.20303
 Alpha  occ. eigenvalues --   -0.19217  -0.17465  -0.14737  -0.11442  -0.10205
 Alpha  occ. eigenvalues --    0.04177
 Alpha virt. eigenvalues --    0.08185   0.12839   0.13326   0.17819   0.19452
 Alpha virt. eigenvalues --    0.21000   0.22815   0.23822   0.25053   0.26200
 Alpha virt. eigenvalues --    0.27025   0.28988   0.30186   0.30349   0.32233
 Alpha virt. eigenvalues --    0.32964   0.33305   0.35116   0.35996   0.37204
 Alpha virt. eigenvalues --    0.37378   0.37803   0.39435   0.40532   0.41164
 Alpha virt. eigenvalues --    0.42538   0.43398   0.45152   0.45731   0.47527
 Alpha virt. eigenvalues --    0.47873   0.48530   0.48890   0.49783   0.50338
 Alpha virt. eigenvalues --    0.51923   0.52599   0.54304   0.55974   0.56279
 Alpha virt. eigenvalues --    0.56486   0.57467   0.58167   0.59335   0.59953
 Alpha virt. eigenvalues --    0.62305   0.62899   0.63267   0.65659   0.66321
 Alpha virt. eigenvalues --    0.66894   0.67598   0.68626   0.70400   0.72280
 Alpha virt. eigenvalues --    0.72872   0.73580   0.75010   0.78199   0.80170
 Alpha virt. eigenvalues --    0.80972   0.82698   0.82724   0.85123   0.85813
 Alpha virt. eigenvalues --    0.88274   0.89374   0.89714   0.91140   0.91971
 Alpha virt. eigenvalues --    0.92510   0.96309   0.96950   0.99021   1.01341
 Alpha virt. eigenvalues --    1.01373   1.02833   1.06203   1.06931   1.08197
 Alpha virt. eigenvalues --    1.11103   1.12785   1.13310   1.16405   1.18943
 Alpha virt. eigenvalues --    1.20265   1.20465   1.23948   1.24378   1.27333
 Alpha virt. eigenvalues --    1.28372   1.31006   1.32941   1.36204   1.37595
 Alpha virt. eigenvalues --    1.39349   1.41041   1.41314   1.43389   1.44175
 Alpha virt. eigenvalues --    1.47908   1.48633   1.51226   1.51774   1.53898
 Alpha virt. eigenvalues --    1.57558   1.58278   1.60906   1.63415   1.64446
 Alpha virt. eigenvalues --    1.65247   1.66746   1.69843   1.70519   1.71772
 Alpha virt. eigenvalues --    1.72292   1.73653   1.75564   1.76654   1.77857
 Alpha virt. eigenvalues --    1.81408   1.82151   1.84421   1.85170   1.86006
 Alpha virt. eigenvalues --    1.87910   1.92054   1.93831   1.98109   1.98563
 Alpha virt. eigenvalues --    1.99738   2.02168   2.04384   2.05753   2.07055
 Alpha virt. eigenvalues --    2.08854   2.11325   2.11863   2.13201   2.14440
 Alpha virt. eigenvalues --    2.16305   2.19325   2.20048   2.24041   2.24305
 Alpha virt. eigenvalues --    2.27409   2.28566   2.30325   2.32652   2.33322
 Alpha virt. eigenvalues --    2.34718   2.37910   2.41357   2.45448   2.46525
 Alpha virt. eigenvalues --    2.47213   2.50732   2.52309   2.53410   2.56287
 Alpha virt. eigenvalues --    2.58788   2.63356   2.69717   2.70077   2.70998
 Alpha virt. eigenvalues --    2.73136   2.73590   2.74966   2.77376   2.77590
 Alpha virt. eigenvalues --    2.78884   2.79799   2.82350   2.82914   2.85152
 Alpha virt. eigenvalues --    2.87016   2.88519   2.91210   2.91450   2.93369
 Alpha virt. eigenvalues --    2.96054   2.96492   2.98232   2.98641   3.00898
 Alpha virt. eigenvalues --    3.01862   3.03297   3.05707   3.06724   3.07558
 Alpha virt. eigenvalues --    3.09019   3.11500   3.13338   3.16072   3.18261
 Alpha virt. eigenvalues --    3.19456   3.20376   3.20823   3.23346   3.24620
 Alpha virt. eigenvalues --    3.26726   3.27907   3.28713   3.29521   3.30981
 Alpha virt. eigenvalues --    3.31961   3.35816   3.36485   3.37707   3.38513
 Alpha virt. eigenvalues --    3.39089   3.41851   3.42631   3.43648   3.44708
 Alpha virt. eigenvalues --    3.46861   3.47581   3.49552   3.50489   3.52665
 Alpha virt. eigenvalues --    3.53780   3.54828   3.55890   3.56936   3.58084
 Alpha virt. eigenvalues --    3.60644   3.61672   3.61983   3.63125   3.66797
 Alpha virt. eigenvalues --    3.68017   3.72093   3.73155   3.73958   3.75323
 Alpha virt. eigenvalues --    3.80965   3.87702   3.88863   3.91531   3.93393
 Alpha virt. eigenvalues --    3.95879   3.96274   3.98358   3.99247   4.01794
 Alpha virt. eigenvalues --    4.07541   4.10811   4.17006   4.20017   4.24872
 Alpha virt. eigenvalues --    4.27348   4.30605   4.31438   4.34027   4.34463
 Alpha virt. eigenvalues --    4.37620   4.38177   4.40253   4.43167   4.47225
 Alpha virt. eigenvalues --    4.48618   4.53668   4.57135   4.58791   4.64780
 Alpha virt. eigenvalues --    4.69026   4.74584   4.77789   4.80770   4.82109
 Alpha virt. eigenvalues --    4.90767   5.01928   5.05833   5.09745   5.11533
 Alpha virt. eigenvalues --    5.17588   5.27968   5.30892   5.32737   5.34345
 Alpha virt. eigenvalues --    5.35398   5.42128   5.50944   5.53308   5.54499
 Alpha virt. eigenvalues --    5.58880   5.62764   5.67748   5.76817   5.79599
 Alpha virt. eigenvalues --    5.89468   5.98520   6.12406   6.33820   6.37560
 Alpha virt. eigenvalues --    6.45978   6.55018   6.60742   6.71147   6.76094
 Alpha virt. eigenvalues --    6.88246   6.95104   7.05985   7.13226   7.22136
 Alpha virt. eigenvalues --    7.33337  22.15896  22.43885  22.77825  22.80702
 Alpha virt. eigenvalues --   22.83961  22.93604  23.05695  23.38188  43.84084
 Alpha virt. eigenvalues --   43.96653
          Condensed to atoms (all electrons):
               1          2          3          4          5          6
     1  C    5.911837   0.232937   0.079442  -0.176220  -0.014451   0.333167
     2  C    0.232937   5.726733  -0.041353   0.085788   0.243833  -0.384855
     3  C    0.079442  -0.041353   5.996231   0.131461  -0.690827   0.196167
     4  C   -0.176220   0.085788   0.131461   5.653228   0.474225  -0.023374
     5  C   -0.014451   0.243833  -0.690827   0.474225   5.660439   0.140938
     6  C    0.333167  -0.384855   0.196167  -0.023374   0.140938   5.529793
     7  H   -0.106238   0.485409  -0.114367   0.041391   0.019872  -0.019624
     8  H    0.036049  -0.132772   0.556025  -0.195325  -0.048780   0.018450
     9  H    0.030249   0.024571  -0.060620  -0.152486   0.522417  -0.117503
    10  H   -0.084347  -0.019393   0.020362   0.032374  -0.091460   0.467219
    11  C    0.009458  -0.004360   0.084536  -0.204231  -0.004820   0.020318
    12  H   -0.000252   0.000843  -0.006514  -0.049283   0.010801  -0.000683
    13  H    0.000344  -0.001995   0.024002  -0.068367  -0.007611  -0.000010
    14  C    0.078717  -0.080614   0.005136   0.000624  -0.001099  -0.026161
    15  O   -0.228298   0.022068   0.004268  -0.000496   0.000183   0.005702
    16  O   -0.172365   0.007177  -0.000008  -0.000138  -0.000778   0.023492
    17  H    0.029818   0.001378  -0.000280  -0.000014   0.000117  -0.007580
               7          8          9         10         11         12
     1  C   -0.106238   0.036049   0.030249  -0.084347   0.009458  -0.000252
     2  C    0.485409  -0.132772   0.024571  -0.019393  -0.004360   0.000843
     3  C   -0.114367   0.556025  -0.060620   0.020362   0.084536  -0.006514
     4  C    0.041391  -0.195325  -0.152486   0.032374  -0.204231  -0.049283
     5  C    0.019872  -0.048780   0.522417  -0.091460  -0.004820   0.010801
     6  C   -0.019624   0.018450  -0.117503   0.467219   0.020318  -0.000683
     7  H    0.619653  -0.026363   0.000773  -0.001484  -0.004912   0.000096
     8  H   -0.026363   0.673442  -0.003471   0.000676   0.083652  -0.000646
     9  H    0.000773  -0.003471   0.674723  -0.024945   0.070855   0.003979
    10  H   -0.001484   0.000676  -0.024945   0.626217  -0.003014  -0.000016
    11  C   -0.004912   0.083652   0.070855  -0.003014   5.990384   0.400217
    12  H    0.000096  -0.000646   0.003979  -0.000016   0.400217   0.645466
    13  H   -0.000046   0.006009  -0.000864   0.000070   0.400853  -0.051127
    14  C   -0.002747  -0.002302  -0.000309  -0.013438  -0.000397  -0.000011
    15  O    0.019687  -0.000096   0.000011   0.000254  -0.000008  -0.000000
    16  O    0.001076  -0.000005  -0.000009   0.011292  -0.000003   0.000000
    17  H    0.000059  -0.000006   0.000030  -0.002097   0.000001   0.000000
              13         14         15         16         17
     1  C    0.000344   0.078717  -0.228298  -0.172365   0.029818
     2  C   -0.001995  -0.080614   0.022068   0.007177   0.001378
     3  C    0.024002   0.005136   0.004268  -0.000008  -0.000280
     4  C   -0.068367   0.000624  -0.000496  -0.000138  -0.000014
     5  C   -0.007611  -0.001099   0.000183  -0.000778   0.000117
     6  C   -0.000010  -0.026161   0.005702   0.023492  -0.007580
     7  H   -0.000046  -0.002747   0.019687   0.001076   0.000059
     8  H    0.006009  -0.002302  -0.000096  -0.000005  -0.000006
     9  H   -0.000864  -0.000309   0.000011  -0.000009   0.000030
    10  H    0.000070  -0.013438   0.000254   0.011292  -0.002097
    11  C    0.400853  -0.000397  -0.000008  -0.000003   0.000001
    12  H   -0.051127  -0.000011  -0.000000   0.000000   0.000000
    13  H    0.655807  -0.000003   0.000000   0.000000  -0.000000
    14  C   -0.000003   4.694926   0.702489   0.398398  -0.038931
    15  O    0.000000   0.702489   7.972586  -0.094575   0.007597
    16  O    0.000000   0.398398  -0.094575   7.984052   0.270039
    17  H   -0.000000  -0.038931   0.007597   0.270039   0.449153
 Mulliken charges:
               1
     1  C    0.040152
     2  C   -0.165397
     3  C   -0.183660
     4  C    0.450844
     5  C   -0.213000
     6  C   -0.155457
     7  H    0.087765
     8  H    0.035462
     9  H    0.032599
    10  H    0.081731
    11  C   -0.838529
    12  H    0.047128
    13  H    0.042937
    14  C    0.285723
    15  O   -0.411372
    16  O   -0.427644
    17  H    0.290717
 Sum of Mulliken charges =  -1.00000
 Mulliken charges with hydrogens summed into heavy atoms:
               1
     1  C    0.040152
     2  C   -0.077632
     3  C   -0.148198
     4  C    0.450844
     5  C   -0.180401
     6  C   -0.073726
    11  C   -0.748464
    14  C    0.285723
    15  O   -0.411372
    16  O   -0.136927
 Electronic spatial extent (au):  <R**2>=           1730.4566
 Charge=             -1.0000 electrons
 Dipole moment (field-independent basis, Debye):
    X=              7.2551    Y=             -0.9893    Z=              0.6707  Tot=              7.3529
 Quadrupole moment (field-independent basis, Debye-Ang):
   XX=           -110.4859   YY=            -68.6358   ZZ=            -63.7285
   XY=             -8.7316   XZ=              3.1584   YZ=             -1.0365
 Traceless Quadrupole moment (field-independent basis, Debye-Ang):
   XX=            -29.5358   YY=             12.3143   ZZ=             17.2215
   XY=             -8.7316   XZ=              3.1584   YZ=             -1.0365
 Octapole moment (field-independent basis, Debye-Ang**2):
  XXX=            206.0374  YYY=             -0.1125  ZZZ=              0.4923  XYY=             13.3875
  XXY=            -13.1228  XXZ=             11.3589  XZZ=             17.5080  YZZ=              0.0074
  YYZ=              0.7236  XYZ=             -2.2518
 Hexadecapole moment (field-independent basis, Debye-Ang**3):
 XXXX=          -2543.7672 YYYY=           -446.1567 ZZZZ=            -82.8769 XXXY=           -139.8920
 XXXZ=             51.9678 YYYX=            -19.7030 YYYZ=             -0.9762 ZZZX=              1.9637
 ZZZY=             -1.1769 XXYY=           -485.1572 XXZZ=           -331.5020 YYZZ=            -95.5631
 XXYZ=            -16.9759 YYXZ=              3.7488 ZZXY=             -3.7653
 N-N= 4.646050926998D+02 E-N=-2.013277792625D+03  KE= 4.571301760857D+02
   1 Symmetry operations used in ECPInt.
 ECPInt:  NShTT=    9591 NPrTT=   29644 LenC2=    9106 LenP2D=   21843.
 LDataN:  DoStor=T MaxTD1= 7 Len=  274
 Calling FoFJK, ICntrl=      2127 FMM=F ISym2X=0 I1Cent= 0 IOpClX= 0 NMat=1 NMatS=1 NMatT=0.
 ***** Axes restored to original set *****
 -------------------------------------------------------------------
 Center     Atomic                   Forces (Hartrees/Bohr)
 Number     Number              X              Y              Z
 -------------------------------------------------------------------
      1        6          -0.022760108   -0.050960667   -0.002313272
      2        6          -0.000193986    0.017534070   -0.003408564
      3        6          -0.012850199   -0.034909585   -0.014613590
      4        6           0.002087866    0.065538431    0.009752810
      5        6           0.009406754   -0.032202139    0.007348064
      6        6           0.005451334    0.021262111    0.003465010
      7        1           0.006102943   -0.006864213    0.001695796
      8        1           0.005686809    0.005726713    0.000625514
      9        1          -0.005233757    0.006824537   -0.000776482
     10        1          -0.007170858   -0.005843488   -0.000784025
     11        6          -0.007969232   -0.039660414   -0.005421069
     12        1          -0.011457729    0.004214024    0.006881267
     13        1           0.016394804    0.003344031   -0.004721585
     14        6           0.048507021   -0.000696500    0.000722576
     15        8          -0.052411485    0.015810465    0.004014881
     16        8           0.015591538    0.035306568   -0.000635526
     17        1           0.010818286   -0.004423943   -0.001831806
 -------------------------------------------------------------------
 Cartesian Forces:  Max     0.065538431 RMS     0.020087980

 GradGradGradGradGradGradGradGradGradGradGradGradGradGradGradGradGradGrad
 Berny optimization.
 FormGI is forming the generalized inverse of G from B-inverse, IUseBI=4.
 Internal  Forces:  Max     0.053158872 RMS     0.012211247
 Search for a local minimum.
 Step number   1 out of a maximum of   86
 All quantities printed in internal units (Hartrees-Bohrs-Radians)
 Mixed Optimization -- RFO/linear search
 Second derivative matrix not updated -- first step.
 ITU=  0
     Eigenvalues ---    0.00237   0.00237   0.00455   0.00590   0.01295
     Eigenvalues ---    0.01463   0.01561   0.02066   0.02067   0.02068
     Eigenvalues ---    0.02070   0.02073   0.02073   0.02075   0.16000
     Eigenvalues ---    0.16000   0.16000   0.16000   0.16000   0.16000
     Eigenvalues ---    0.16000   0.21996   0.22972   0.23986   0.24933
     Eigenvalues ---    0.24999   0.25000   0.25000   0.28519   0.28519
     Eigenvalues ---    0.37230   0.37230   0.37230   0.37230   0.37230
     Eigenvalues ---    0.37230   0.40989   0.41258   0.41641   0.45326
     Eigenvalues ---    0.45389   0.45391   0.45451   0.55473   0.80209
 RFO step:  Lambda=-4.10864833D-02 EMin= 2.36824206D-03
 Linear search not attempted -- first point.
 Iteration  1 RMS(Cart)=  0.07803226 RMS(Int)=  0.01863981
 Iteration  2 RMS(Cart)=  0.02196945 RMS(Int)=  0.00095771
 Iteration  3 RMS(Cart)=  0.00091717 RMS(Int)=  0.00022300
 Iteration  4 RMS(Cart)=  0.00000158 RMS(Int)=  0.00022300
 Iteration  5 RMS(Cart)=  0.00000000 RMS(Int)=  0.00022300
 Variable       Old X    -DE/DX   Delta X   Delta X   Delta X     New X
                                 (Linear)    (Quad)   (Total)
    R1        2.64739  -0.00073   0.00000  -0.00172  -0.00184   2.64556
    R2        2.64739   0.00189   0.00000   0.00361   0.00348   2.65087
    R3        2.91018  -0.04631   0.00000  -0.14194  -0.14194   2.76824
    R4        2.64826  -0.01102   0.00000  -0.02231  -0.02229   2.62597
    R5        2.02201   0.00875   0.00000   0.02116   0.02116   2.04317
    R6        2.64913   0.00882   0.00000   0.01804   0.01817   2.66730
    R7        2.02201   0.00776   0.00000   0.01878   0.01878   2.04078
    R8        2.64913   0.00624   0.00000   0.01289   0.01300   2.66213
    R9        2.91018  -0.03225   0.00000  -0.09884  -0.09884   2.81134
   R10        2.64826  -0.01016   0.00000  -0.02048  -0.02049   2.62777
   R11        2.02201   0.00797   0.00000   0.01928   0.01928   2.04128
   R12        2.02201   0.00910   0.00000   0.02202   0.02202   2.04403
   R13        2.02201   0.00791   0.00000   0.01914   0.01914   2.04115
   R14        2.02201   0.00899   0.00000   0.02176   0.02176   2.04376
   R15        2.37803  -0.05316   0.00000  -0.06305  -0.06305   2.31499
   R16        2.70231  -0.03813   0.00000  -0.08456  -0.08456   2.61775
   R17        1.81414   0.00424   0.00000   0.00711   0.00711   1.82125
    A1        2.09359  -0.00266   0.00000  -0.01106  -0.01131   2.08227
    A2        2.09479  -0.00398   0.00000  -0.01271  -0.01259   2.08220
    A3        2.09479   0.00664   0.00000   0.02378   0.02391   2.11870
    A4        2.09457  -0.00083   0.00000  -0.00503  -0.00516   2.08941
    A5        2.09426  -0.00239   0.00000  -0.01144  -0.01142   2.08284
    A6        2.09434   0.00321   0.00000   0.01640   0.01641   2.11075
    A7        2.09635   0.01021   0.00000   0.03816   0.03828   2.13463
    A8        2.09345  -0.00285   0.00000  -0.00786  -0.00795   2.08550
    A9        2.09338  -0.00736   0.00000  -0.03025  -0.03034   2.06303
   A10        2.09044  -0.01569   0.00000  -0.05373  -0.05365   2.03679
   A11        2.09524   0.01044   0.00000   0.03658   0.03633   2.13158
   A12        2.09524   0.00536   0.00000   0.01910   0.01884   2.11408
   A13        2.09635   0.00752   0.00000   0.02818   0.02828   2.12463
   A14        2.09338  -0.00699   0.00000  -0.03016  -0.03021   2.06316
   A15        2.09345  -0.00053   0.00000   0.00198   0.00193   2.09539
   A16        2.09457   0.00148   0.00000   0.00416   0.00400   2.09857
   A17        2.09426  -0.00237   0.00000  -0.01014  -0.01009   2.08418
   A18        2.09434   0.00088   0.00000   0.00602   0.00608   2.10042
   A19        2.08653   0.00129   0.00000   0.00306   0.00245   2.08898
   A20        2.08653  -0.00220   0.00000  -0.01430  -0.01492   2.07161
   A21        2.08631   0.00029   0.00000  -0.00203  -0.00268   2.08363
   A22        2.09440   0.02815   0.00000   0.09670   0.09669   2.19109
   A23        2.09440  -0.02486   0.00000  -0.08542  -0.08542   2.00897
   A24        2.09440  -0.00328   0.00000  -0.01128  -0.01128   2.08311
   A25        1.91063  -0.01674   0.00000  -0.08323  -0.08323   1.82741
    D1       -0.00551   0.00034   0.00000   0.00609   0.00614   0.00062
    D2        3.13136  -0.00068   0.00000  -0.00977  -0.00950   3.12186
    D3       -3.14081   0.00029   0.00000   0.00482   0.00477  -3.13604
    D4       -0.00394  -0.00072   0.00000  -0.01104  -0.01087  -0.01481
    D5        0.00551  -0.00008   0.00000  -0.00215  -0.00227   0.00324
    D6       -3.13136  -0.00075   0.00000  -0.01334  -0.01350   3.13833
    D7        3.14081  -0.00008   0.00000  -0.00102  -0.00101   3.13980
    D8        0.00394  -0.00074   0.00000  -0.01221  -0.01223  -0.00830
    D9       -0.00315   0.00099   0.00000   0.02308   0.02320   0.02005
   D10        3.13844   0.00076   0.00000   0.01826   0.01827  -3.12647
   D11       -3.13844   0.00098   0.00000   0.02194   0.02193  -3.11651
   D12        0.00315   0.00076   0.00000   0.01712   0.01700   0.02015
   D13       -0.01416   0.00018   0.00000   0.00480   0.00506  -0.00910
   D14        3.13215  -0.00059   0.00000  -0.00812  -0.00802   3.12413
   D15        3.13215   0.00121   0.00000   0.02074   0.02104  -3.13000
   D16       -0.00472   0.00044   0.00000   0.00782   0.00795   0.00323
   D17        0.03372  -0.00136   0.00000  -0.02102  -0.02066   0.01306
   D18        3.10313   0.00065   0.00000   0.01075   0.01062   3.11375
   D19       -3.11258  -0.00058   0.00000  -0.00804  -0.00768  -3.12027
   D20       -0.04318   0.00143   0.00000   0.02373   0.02360  -0.01958
   D21       -0.03372   0.00166   0.00000   0.02513   0.02470  -0.00903
   D22        3.11258   0.00160   0.00000   0.02360   0.02310   3.13568
   D23       -3.10313  -0.00056   0.00000  -0.00738  -0.00702  -3.11015
   D24        0.04318  -0.00062   0.00000  -0.00890  -0.00862   0.03456
   D25       -1.53542  -0.01070   0.00000  -0.24924  -0.24976  -1.78517
   D26        1.37243  -0.01364   0.00000  -0.31359  -0.31393   1.05850
   D27        1.53379  -0.00956   0.00000  -0.22041  -0.22006   1.31373
   D28       -1.84155  -0.01250   0.00000  -0.28475  -0.28424  -2.12579
   D29        0.01416  -0.00068   0.00000  -0.01270  -0.01299   0.00117
   D30       -3.13215  -0.00003   0.00000  -0.00156  -0.00170  -3.13386
   D31       -3.13215  -0.00064   0.00000  -0.01127  -0.01144   3.13959
   D32        0.00472   0.00001   0.00000  -0.00012  -0.00016   0.00456
   D33       -2.61799  -0.00508   0.00000  -0.09371  -0.09383  -2.71182
   D34        0.52360  -0.00531   0.00000  -0.09854  -0.09843   0.42517
         Item               Value     Threshold  Converged?
 Maximum Force            0.053159     0.000015     NO 
 RMS     Force            0.012211     0.000010     NO 
 Maximum Displacement     0.426675     0.000060     NO 
 RMS     Displacement     0.092093     0.000040     NO 
 Predicted change in Energy=-2.862117D-02
 GradGradGradGradGradGradGradGradGradGradGradGradGradGradGradGradGradGrad

                          Input orientation:                          
 ---------------------------------------------------------------------
 Center     Atomic      Atomic             Coordinates (Angstroms)
 Number     Number       Type             X           Y           Z
 ---------------------------------------------------------------------
      1          6           0       -0.043383   -1.873403   -0.045784
      2          6           0        1.173359   -1.181683   -0.076966
      3          6           0        1.176167    0.207880   -0.066854
      4          6           0       -0.015049    0.964419   -0.036664
      5          6           0       -1.223441    0.241209   -0.000507
      6          6           0       -1.244080   -1.149184   -0.005455
      7          1           0        2.099575   -1.739319   -0.089458
      8          1           0        2.117187    0.737677   -0.074584
      9          1           0       -2.149856    0.795947    0.028722
     10          1           0       -2.185271   -1.681811    0.015607
     11          6           0       -0.007043    2.451390    0.009135
     12          1           0       -0.198495    2.958901    0.943189
     13          1           0        0.456009    2.993479   -0.804126
     14          6           0       -0.035586   -3.338267   -0.049667
     15          8           0        0.964990   -4.045011   -0.058520
     16          8           0       -1.286735   -3.932722   -0.036281
     17          1           0       -1.139419   -4.804130    0.348153
 ---------------------------------------------------------------------
                    Distance matrix (angstroms):
                    1          2          3          4          5
     1  C    0.000000
     2  C    1.399968   0.000000
     3  C    2.412361   1.389603   0.000000
     4  C    2.837979   2.453506   1.411474   0.000000
     5  C    2.422018   2.788390   2.400756   1.408741   0.000000
     6  C    1.402780   2.418715   2.775426   2.445160   1.390555
     7  H    2.147593   1.081199   2.155175   3.432874   3.869476
     8  H    3.389194   2.138869   1.079937   2.144593   3.378130
     9  H    3.401207   3.868584   3.378962   2.142442   1.080200
    10  H    2.151316   3.396924   3.857071   3.422737   2.150205
    11  C    4.325294   3.820992   2.537537   1.487697   2.522819
    12  H    4.934906   4.479636   3.236974   2.229736   3.054002
    13  H    4.950860   4.298294   2.970145   2.219905   3.322852
    14  C    1.464889   2.472478   3.747505   4.302755   3.771746
    15  O    2.394339   2.870959   4.258139   5.104444   4.812928
    16  O    2.405578   3.690790   4.817822   5.059563   4.174565
    17  H    3.153670   4.318771   5.536642   5.889690   5.058070
                    6          7          8          9         10
     6  C    0.000000
     7  H    3.396372   0.000000
     8  H    3.855274   2.477104   0.000000
     9  H    2.145957   4.949667   4.268691   0.000000
    10  H    1.081654   4.286520   4.936922   2.478046   0.000000
    11  C    3.807178   4.691439   2.730599   2.707863   4.672052
    12  H    4.343908   5.331113   3.366316   3.053265   5.132630
    13  H    4.548608   5.060775   2.894890   3.509033   5.432003
    14  C    2.500899   2.667794   4.609595   4.644137   2.714637
    15  O    3.642612   2.569913   4.919545   5.757148   3.938826
    16  O    2.784036   4.034965   5.779341   4.807236   2.424183
    17  H    3.673503   4.480585   6.441724   5.699463   3.309572
                   11         12         13         14         15
    11  C    0.000000
    12  H    1.080129   0.000000
    13  H    1.081513   1.866194   0.000000
    14  C    5.790025   6.377039   6.395458   0.000000
    15  O    6.569067   7.170210   7.096149   1.225037   0.000000
    16  O    6.511264   7.045431   7.183245   1.385255   2.254632
    17  H    7.351175   7.842452   8.042129   1.877621   2.273803
                   16         17
    16  O    0.000000
    17  H    0.963765   0.000000
 Stoichiometry    C8H7O2(1-)
 Framework group  C1[X(C8H7O2)]
 Deg. of freedom    45
 Full point group                 C1      NOp   1
 Largest Abelian subgroup         C1      NOp   1
 Largest concise Abelian subgroup C1      NOp   1
                         Standard orientation:                         
 ---------------------------------------------------------------------
 Center     Atomic      Atomic             Coordinates (Angstroms)
 Number     Number       Type             X           Y           Z
 ---------------------------------------------------------------------
      1          6           0        0.651892    0.051162   -0.013123
      2          6           0       -0.086153    1.240752   -0.004508
      3          6           0       -1.474817    1.189780   -0.001088
      4          6           0       -2.184924   -0.029956   -0.016862
      5          6           0       -1.415752   -1.210174   -0.020056
      6          6           0       -0.025590   -1.177161   -0.018943
      7          1           0        0.435365    2.187577    0.018582
      8          1           0       -2.040502    2.109417    0.021975
      9          1           0       -1.934426   -2.157681   -0.026413
     10          1           0        0.542884   -2.097334   -0.028675
     11          6           0       -3.671248   -0.080753    0.021931
     12          1           0       -4.174271   -0.324731    0.946117
     13          1           0       -4.227942    0.389800   -0.777032
     14          6           0        2.115368    0.115398   -0.009575
     15          8           0        2.783000    1.142081    0.020518
     16          8           0        2.757612   -1.111657   -0.037670
     17          1           0        3.621330   -0.944743    0.355998
 ---------------------------------------------------------------------
 Rotational constants (GHZ):           3.8339319           0.7995080           0.6644831
 Standard basis: def2TZVP (5D, 7F)
 There are   402 symmetry adapted cartesian basis functions of A   symmetry.
 There are   352 symmetry adapted basis functions of A   symmetry.
   352 basis functions,   566 primitive gaussians,   402 cartesian basis functions
    36 alpha electrons       36 beta electrons
       nuclear repulsion energy       471.3921763091 Hartrees.
 NAtoms=   17 NActive=   17 NUniq=   17 SFac= 1.00D+00 NAtFMM=   60 NAOKFM=F Big=F
 Integral buffers will be    131072 words long.
 Raffenetti 2 integral format.
 Two-electron integral symmetry is turned on.
 One-electron integrals computed using PRISM.
   1 Symmetry operations used in ECPInt.
 ECPInt:  NShTT=    9591 NPrTT=   29644 LenC2=    9134 LenP2D=   21965.
 LDataN:  DoStor=T MaxTD1= 6 Len=  172
 NBasis=   352 RedAO= T EigKep=  7.90D-06  NBF=   352
 NBsUse=   352 1.00D-06 EigRej= -1.00D+00 NBFU=   352
 Initial guess from the checkpoint file:  "C6H5CH2-o.chk"
 B after Tr=     0.000000   -0.000000   -0.000000
         Rot=    0.999971   -0.005460    0.000033    0.005246 Ang=  -0.87 deg.
 ExpMin= 9.52D-02 ExpMax= 2.70D+04 ExpMxC= 9.22D+02 IAcc=2 IRadAn=         4 AccDes= 0.00D+00
 Harris functional with IExCor=  402 and IRadAn=       4 diagonalized for initial guess.
 HarFok:  IExCor=  402 AccDes= 0.00D+00 IRadAn=         4 IDoV= 1 UseB2=F ITyADJ=14
 ICtDFT=  3500011 ScaDFX=  1.000000  1.000000  1.000000  1.000000
 FoFCou: FMM=F IPFlag=           0 FMFlag=      100000 FMFlg1=           0
         NFxFlg=           0 DoJE=T BraDBF=F KetDBF=T FulRan=T
         wScrn=  0.000000 ICntrl=       500 IOpCl=  0 I1Cent=   200000004 NGrid=           0
         NMat0=    1 NMatS0=      1 NMatT0=    0 NMatD0=    1 NMtDS0=    0 NMtDT0=    0
 Petite list used in FoFCou.
 Requested convergence on RMS density matrix=1.00D-08 within 128 cycles.
 Requested convergence on MAX density matrix=1.00D-06.
 Requested convergence on             energy=1.00D-06.
 No special actions if energy rises.
 Integral accuracy reduced to 1.0D-05 until final iterations.
 Initial convergence to 1.0D-05 achieved.  Increase integral accuracy.
 SCF Done:  E(RB3LYP) =  -459.681730653     A.U. after   16 cycles
            NFock= 16  Conv=0.76D-08     -V/T= 2.0048
   1 Symmetry operations used in ECPInt.
 ECPInt:  NShTT=    9591 NPrTT=   29644 LenC2=    9134 LenP2D=   21965.
 LDataN:  DoStor=T MaxTD1= 7 Len=  274
 Calling FoFJK, ICntrl=      2127 FMM=F ISym2X=0 I1Cent= 0 IOpClX= 0 NMat=1 NMatS=1 NMatT=0.
 ***** Axes restored to original set *****
 -------------------------------------------------------------------
 Center     Atomic                   Forces (Hartrees/Bohr)
 Number     Number              X              Y              Z
 -------------------------------------------------------------------
      1        6          -0.007718828   -0.027814846   -0.002215034
      2        6           0.003429178    0.019025646   -0.003508230
      3        6           0.005223752   -0.019751401   -0.015263713
      4        6           0.000736824    0.045154021    0.006742541
      5        6          -0.004330776   -0.020819509    0.011734119
      6        6          -0.003147451    0.017488388    0.003171639
      7        1           0.000490381   -0.001097942    0.001116297
      8        1           0.001936399    0.001859666    0.000847998
      9        1          -0.001557891    0.001590232   -0.000926602
     10        1          -0.000205895   -0.000119271   -0.000832095
     11        6          -0.002091232   -0.029422609   -0.006836626
     12        1          -0.014377729    0.003059733   -0.003272542
     13        1           0.016015759    0.000957952    0.007060052
     14        6           0.009834874    0.013230762   -0.001875983
     15        8          -0.003674146   -0.003337003    0.003478803
     16        8          -0.002296030    0.004579780    0.005467761
     17        1           0.001732812   -0.004583598   -0.004888385
 -------------------------------------------------------------------
 Cartesian Forces:  Max     0.045154021 RMS     0.011512402

 GradGradGradGradGradGradGradGradGradGradGradGradGradGradGradGradGradGrad
 Berny optimization.
 Using GEDIIS/GDIIS optimizer.
 FormGI is forming the generalized inverse of G from B-inverse, IUseBI=4.
 Internal  Forces:  Max     0.025488887 RMS     0.005703283
 Search for a local minimum.
 Step number   2 out of a maximum of   86
 All quantities printed in internal units (Hartrees-Bohrs-Radians)
 Mixed Optimization -- RFO/linear search
 Update second derivatives using D2CorX and points    1    2
 DE= -3.33D-02 DEPred=-2.86D-02 R= 1.16D+00
 TightC=F SS=  1.41D+00  RLast= 6.27D-01 DXNew= 5.0454D-01 1.8815D+00
 Trust test= 1.16D+00 RLast= 6.27D-01 DXMaxT set to 5.05D-01
 ITU=  1  0
 Use linear search instead of GDIIS.
     Eigenvalues ---    0.00161   0.00237   0.00558   0.00598   0.01260
     Eigenvalues ---    0.01435   0.01543   0.02064   0.02067   0.02069
     Eigenvalues ---    0.02070   0.02073   0.02075   0.02076   0.15726
     Eigenvalues ---    0.15997   0.16000   0.16000   0.16000   0.16000
     Eigenvalues ---    0.16512   0.19793   0.22076   0.23229   0.24670
     Eigenvalues ---    0.24976   0.25000   0.25466   0.26312   0.30776
     Eigenvalues ---    0.37148   0.37230   0.37230   0.37230   0.37230
     Eigenvalues ---    0.37399   0.41147   0.41624   0.42039   0.45224
     Eigenvalues ---    0.45336   0.45447   0.49807   0.55443   0.87943
 RFO step:  Lambda=-2.28187750D-02 EMin= 1.61109961D-03
 Quartic linear search produced a step of  0.82944.
 Iteration  1 RMS(Cart)=  0.07026546 RMS(Int)=  0.08685704
 Iteration  2 RMS(Cart)=  0.05675507 RMS(Int)=  0.04137972
 Iteration  3 RMS(Cart)=  0.05013921 RMS(Int)=  0.00416448
 Iteration  4 RMS(Cart)=  0.00421742 RMS(Int)=  0.00035740
 Iteration  5 RMS(Cart)=  0.00002719 RMS(Int)=  0.00035650
 Iteration  6 RMS(Cart)=  0.00000001 RMS(Int)=  0.00035650
 Variable       Old X    -DE/DX   Delta X   Delta X   Delta X     New X
                                 (Linear)    (Quad)   (Total)
    R1        2.64556   0.00918  -0.00152   0.02574   0.02405   2.66961
    R2        2.65087   0.00746   0.00289   0.01893   0.02164   2.67251
    R3        2.76824  -0.00987  -0.11773   0.01825  -0.09948   2.66876
    R4        2.62597  -0.00891  -0.01849  -0.01582  -0.03429   2.59167
    R5        2.04317   0.00097   0.01755  -0.00532   0.01224   2.05541
    R6        2.66730   0.00993   0.01507   0.02047   0.03571   2.70301
    R7        2.04078   0.00259   0.01558   0.00103   0.01660   2.05739
    R8        2.66213   0.01094   0.01079   0.02530   0.03625   2.69839
    R9        2.81134  -0.02549  -0.08198  -0.06663  -0.14861   2.66273
   R10        2.62777  -0.00845  -0.01700  -0.01523  -0.03225   2.59552
   R11        2.04128   0.00213   0.01599  -0.00072   0.01527   2.05655
   R12        2.04403   0.00022   0.01827  -0.00816   0.01010   2.05413
   R13        2.04115   0.00116   0.01588  -0.00389   0.01198   2.05313
   R14        2.04376   0.00203   0.01805  -0.00205   0.01599   2.05976
   R15        2.31499  -0.00110  -0.05229   0.02131  -0.03098   2.28401
   R16        2.61775   0.00052  -0.07013   0.03520  -0.03494   2.58281
   R17        1.82125   0.00246   0.00590   0.00288   0.00878   1.83003
    A1        2.08227  -0.00601  -0.00938  -0.02567  -0.03540   2.04688
    A2        2.08220   0.00032  -0.01044   0.00789  -0.00238   2.07982
    A3        2.11870   0.00569   0.01983   0.01778   0.03778   2.15648
    A4        2.08941   0.00436  -0.00428   0.02430   0.01979   2.10920
    A5        2.08284  -0.00290  -0.00947  -0.01055  -0.02005   2.06280
    A6        2.11075  -0.00147   0.01361  -0.01392  -0.00036   2.11039
    A7        2.13463   0.00177   0.03175  -0.00846   0.02349   2.15812
    A8        2.08550  -0.00018  -0.00660   0.00379  -0.00294   2.08256
    A9        2.06303  -0.00158  -0.02517   0.00469  -0.02062   2.04241
   A10        2.03679  -0.00620  -0.04450  -0.00643  -0.05084   1.98595
   A11        2.13158   0.00332   0.03014   0.00054   0.03018   2.16175
   A12        2.11408   0.00293   0.01562   0.00627   0.02139   2.13547
   A13        2.12463   0.00343   0.02346   0.00509   0.02871   2.15334
   A14        2.06316  -0.00230  -0.02506   0.00108  -0.02407   2.03909
   A15        2.09539  -0.00113   0.00160  -0.00619  -0.00468   2.09071
   A16        2.09857   0.00266   0.00332   0.01108   0.01412   2.11269
   A17        2.08418  -0.00135  -0.00837  -0.00177  -0.01015   2.07403
   A18        2.10042  -0.00131   0.00504  -0.00939  -0.00434   2.09607
   A19        2.08898   0.00329   0.00203   0.02090   0.02205   2.11102
   A20        2.07161  -0.00147  -0.01237  -0.00475  -0.01801   2.05360
   A21        2.08363  -0.00223  -0.00222  -0.01629  -0.01945   2.06418
   A22        2.19109   0.00715   0.08020  -0.00784   0.07235   2.26344
   A23        2.00897  -0.00303  -0.07085   0.02274  -0.04812   1.96086
   A24        2.08311  -0.00412  -0.00936  -0.01486  -0.02423   2.05888
   A25        1.82741  -0.00051  -0.06903   0.03708  -0.03195   1.79546
    D1        0.00062   0.00035   0.00509   0.00458   0.00965   0.01028
    D2        3.12186  -0.00047  -0.00788  -0.00478  -0.01234   3.10952
    D3       -3.13604   0.00024   0.00396   0.00275   0.00662  -3.12942
    D4       -0.01481  -0.00058  -0.00902  -0.00662  -0.01537  -0.03018
    D5        0.00324   0.00010  -0.00189   0.00503   0.00297   0.00621
    D6        3.13833  -0.00073  -0.01119  -0.00912  -0.02049   3.11784
    D7        3.13980   0.00019  -0.00084   0.00687   0.00601  -3.13738
    D8       -0.00830  -0.00065  -0.01015  -0.00728  -0.01745  -0.02575
    D9        0.02005   0.00065   0.01924  -0.00014   0.01920   0.03924
   D10       -3.12647   0.00072   0.01515   0.01011   0.02538  -3.10109
   D11       -3.11651   0.00058   0.01819  -0.00188   0.01619  -3.10032
   D12        0.02015   0.00065   0.01410   0.00836   0.02238   0.04253
   D13       -0.00910  -0.00024   0.00420  -0.01190  -0.00742  -0.01652
   D14        3.12413  -0.00057  -0.00665  -0.00867  -0.01522   3.10891
   D15       -3.13000   0.00061   0.01745  -0.00243   0.01540  -3.11460
   D16        0.00323   0.00028   0.00660   0.00080   0.00760   0.01083
   D17        0.01306  -0.00036  -0.01714   0.00906  -0.00747   0.00559
   D18        3.11375   0.00097   0.00881   0.01961   0.02815  -3.14128
   D19       -3.12027  -0.00004  -0.00637   0.00587   0.00009  -3.12018
   D20       -0.01958   0.00129   0.01958   0.01642   0.03571   0.01613
   D21       -0.00903   0.00081   0.02049   0.00071   0.02052   0.01149
   D22        3.13568   0.00104   0.01916   0.00917   0.02753  -3.11997
   D23       -3.11015  -0.00052  -0.00583  -0.00959  -0.01475  -3.12490
   D24        0.03456  -0.00029  -0.00715  -0.00113  -0.00774   0.02681
   D25       -1.78517  -0.01398  -0.20716  -0.35626  -0.56436  -2.34954
   D26        1.05850  -0.01591  -0.26039  -0.35964  -0.62070   0.43780
   D27        1.31373  -0.01280  -0.18252  -0.34554  -0.52740   0.78633
   D28       -2.12579  -0.01473  -0.23576  -0.34893  -0.58374  -2.70952
   D29        0.00117  -0.00067  -0.01077  -0.00770  -0.01879  -0.01761
   D30       -3.13386   0.00017  -0.00141   0.00655   0.00499  -3.12887
   D31        3.13959  -0.00091  -0.00949  -0.01631  -0.02602   3.11357
   D32        0.00456  -0.00007  -0.00013  -0.00206  -0.00224   0.00232
   D33       -2.71182  -0.00574  -0.07782  -0.10406  -0.18185  -2.89367
   D34        0.42517  -0.00565  -0.08164  -0.09449  -0.17616   0.24902
         Item               Value     Threshold  Converged?
 Maximum Force            0.025489     0.000015     NO 
 RMS     Force            0.005703     0.000010     NO 
 Maximum Displacement     0.784569     0.000060     NO 
 RMS     Displacement     0.162984     0.000040     NO 
 Predicted change in Energy=-4.050985D-02
 GradGradGradGradGradGradGradGradGradGradGradGradGradGradGradGradGradGrad

                          Input orientation:                          
 ---------------------------------------------------------------------
 Center     Atomic      Atomic             Coordinates (Angstroms)
 Number     Number       Type             X           Y           Z
 ---------------------------------------------------------------------
      1          6           0       -0.050722   -1.893435   -0.030271
      2          6           0        1.162653   -1.176582   -0.127988
      3          6           0        1.171720    0.194828   -0.121476
      4          6           0       -0.011029    0.994892   -0.038012
      5          6           0       -1.216350    0.233921    0.046187
      6          6           0       -1.243601   -1.139224    0.060569
      7          1           0        2.091326   -1.741387   -0.167948
      8          1           0        2.123241    0.721931   -0.167164
      9          1           0       -2.148562    0.793684    0.090888
     10          1           0       -2.193453   -1.665029    0.114248
     11          6           0       -0.006849    2.403924   -0.031338
     12          1           0       -0.613672    2.961183    0.676931
     13          1           0        0.839567    2.909663   -0.495944
     14          6           0       -0.017507   -3.305286   -0.025466
     15          8           0        0.929837   -4.055141   -0.058315
     16          8           0       -1.268181   -3.854397    0.022925
     17          1           0       -1.089490   -4.778173    0.252114
 ---------------------------------------------------------------------
                    Distance matrix (angstroms):
                    1          2          3          4          5
     1  C    0.000000
     2  C    1.412694   0.000000
     3  C    2.421471   1.371455   0.000000
     4  C    2.888611   2.470005   1.430372   0.000000
     5  C    2.426970   2.771193   2.394268   1.427924   0.000000
     6  C    1.414230   2.413919   2.765250   2.466456   1.373491
     7  H    2.151846   1.087674   2.144006   3.453115   3.858551
     8  H    3.403674   2.128054   1.088723   2.155526   3.381796
     9  H    3.411191   3.859274   3.380533   2.150849   1.088279
    10  H    2.159711   3.400104   3.852145   3.444029   2.136673
    11  C    4.297584   3.767904   2.505446   1.409054   2.485522
    12  H    4.938053   4.574311   3.387890   2.177297   2.863393
    13  H    4.907058   4.115480   2.760595   2.144659   3.417645
    14  C    1.412249   2.436118   3.697874   4.300201   3.737425
    15  O    2.373868   2.888799   4.257314   5.136971   4.797196
    16  O    2.308767   3.619727   4.729713   5.009965   4.088713
    17  H    3.079041   4.264749   5.475708   5.880096   5.017926
                    6          7          8          9         10
     6  C    0.000000
     7  H    3.396550   0.000000
     8  H    3.853749   2.463525   0.000000
     9  H    2.134481   4.946739   4.280192   0.000000
    10  H    1.087001   4.294740   4.940710   2.459233   0.000000
    11  C    3.753918   4.648075   2.717505   2.682303   4.621559
    12  H    4.194049   5.490446   3.635579   2.719814   4.920788
    13  H    4.587241   4.827706   2.557750   3.708187   5.522621
    14  C    2.490488   2.629308   4.563042   4.621308   2.728498
    15  O    3.638754   2.591242   4.925086   5.745424   3.936667
    16  O    2.715545   3.973353   5.699180   4.731210   2.378613
    17  H    3.647244   4.417705   6.383461   5.673906   3.305965
                   11         12         13         14         15
    11  C    0.000000
    12  H    1.086470   0.000000
    13  H    1.089977   1.868206   0.000000
    14  C    5.709223   6.333830   6.291384   0.000000
    15  O    6.526686   7.221620   6.979123   1.208645   0.000000
    16  O    6.384394   6.878098   7.103825   1.366766   2.208660
    17  H    7.268767   7.765597   7.961386   1.842714   2.167215
                   16         17
    16  O    0.000000
    17  H    0.968411   0.000000
 Stoichiometry    C8H7O2(1-)
 Framework group  C1[X(C8H7O2)]
 Deg. of freedom    45
 Full point group                 C1      NOp   1
 Largest Abelian subgroup         C1      NOp   1
 Largest concise Abelian subgroup C1      NOp   1
                         Standard orientation:                         
 ---------------------------------------------------------------------
 Center     Atomic      Atomic             Coordinates (Angstroms)
 Number     Number       Type             X           Y           Z
 ---------------------------------------------------------------------
      1          6           0        0.678273    0.043890   -0.006557
      2          6           0       -0.081334    1.234966   -0.012905
      3          6           0       -1.452182    1.194840   -0.005529
      4          6           0       -2.209661   -0.018486   -0.010873
      5          6           0       -1.406287   -1.198959   -0.017407
      6          6           0       -0.033003   -1.178457   -0.005312
      7          1           0        0.450146    2.183482    0.016802
      8          1           0       -2.012747    2.127800    0.020340
      9          1           0       -1.932589   -2.151178   -0.042652
     10          1           0        0.526228   -2.110399   -0.023087
     11          6           0       -3.617934   -0.064831   -0.003696
     12          1           0       -4.151382   -0.742416    0.657158
     13          1           0       -4.154606    0.795536   -0.403449
     14          6           0        2.088072    0.126739    0.000517
     15          8           0        2.803844    1.099896    0.038687
     16          8           0        2.681223   -1.103765   -0.045094
     17          1           0        3.598739   -0.910077    0.196713
 ---------------------------------------------------------------------
 Rotational constants (GHZ):           3.8972288           0.8153691           0.6755571
 Standard basis: def2TZVP (5D, 7F)
 There are   402 symmetry adapted cartesian basis functions of A   symmetry.
 There are   352 symmetry adapted basis functions of A   symmetry.
   352 basis functions,   566 primitive gaussians,   402 cartesian basis functions
    36 alpha electrons       36 beta electrons
       nuclear repulsion energy       475.3583055251 Hartrees.
 NAtoms=   17 NActive=   17 NUniq=   17 SFac= 1.00D+00 NAtFMM=   60 NAOKFM=F Big=F
 Integral buffers will be    131072 words long.
 Raffenetti 2 integral format.
 Two-electron integral symmetry is turned on.
 One-electron integrals computed using PRISM.
   1 Symmetry operations used in ECPInt.
 ECPInt:  NShTT=    9591 NPrTT=   29644 LenC2=    9151 LenP2D=   22025.
 LDataN:  DoStor=T MaxTD1= 6 Len=  172
 NBasis=   352 RedAO= T EigKep=  8.12D-06  NBF=   352
 NBsUse=   352 1.00D-06 EigRej= -1.00D+00 NBFU=   352
 Initial guess from the checkpoint file:  "C6H5CH2-o.chk"
 B after Tr=     0.000000    0.000000   -0.000000
         Rot=    0.999967   -0.007650   -0.000010    0.002863 Ang=  -0.94 deg.
 ExpMin= 9.52D-02 ExpMax= 2.70D+04 ExpMxC= 9.22D+02 IAcc=2 IRadAn=         4 AccDes= 0.00D+00
 Harris functional with IExCor=  402 and IRadAn=       4 diagonalized for initial guess.
 HarFok:  IExCor=  402 AccDes= 0.00D+00 IRadAn=         4 IDoV= 1 UseB2=F ITyADJ=14
 ICtDFT=  3500011 ScaDFX=  1.000000  1.000000  1.000000  1.000000
 FoFCou: FMM=F IPFlag=           0 FMFlag=      100000 FMFlg1=           0
         NFxFlg=           0 DoJE=T BraDBF=F KetDBF=T FulRan=T
         wScrn=  0.000000 ICntrl=       500 IOpCl=  0 I1Cent=   200000004 NGrid=           0
         NMat0=    1 NMatS0=      1 NMatT0=    0 NMatD0=    1 NMtDS0=    0 NMtDT0=    0
 Petite list used in FoFCou.
 Requested convergence on RMS density matrix=1.00D-08 within 128 cycles.
 Requested convergence on MAX density matrix=1.00D-06.
 Requested convergence on             energy=1.00D-06.
 No special actions if energy rises.
 Integral accuracy reduced to 1.0D-05 until final iterations.
 Initial convergence to 1.0D-05 achieved.  Increase integral accuracy.
 SCF Done:  E(RB3LYP) =  -459.718363801     A.U. after   17 cycles
            NFock= 17  Conv=0.26D-08     -V/T= 2.0043
   1 Symmetry operations used in ECPInt.
 ECPInt:  NShTT=    9591 NPrTT=   29644 LenC2=    9151 LenP2D=   22025.
 LDataN:  DoStor=T MaxTD1= 7 Len=  274
 Calling FoFJK, ICntrl=      2127 FMM=F ISym2X=0 I1Cent= 0 IOpClX= 0 NMat=1 NMatS=1 NMatT=0.
 ***** Axes restored to original set *****
 -------------------------------------------------------------------
 Center     Atomic                   Forces (Hartrees/Bohr)
 Number     Number              X              Y              Z
 -------------------------------------------------------------------
      1        6           0.006599471    0.007215111   -0.001651961
      2        6           0.001409121    0.009513143   -0.000011928
      3        6           0.013805095   -0.002794607   -0.011786728
      4        6          -0.003067197    0.016779793    0.002404069
      5        6          -0.011883742   -0.006613523    0.010337756
      6        6          -0.003668619    0.008318715    0.000117157
      7        1          -0.002070168    0.001980618    0.000050113
      8        1          -0.000717376   -0.001376106    0.000216422
      9        1           0.000367685   -0.002145195   -0.000075592
     10        1           0.002454725    0.002304572   -0.000213535
     11        6           0.010028769   -0.013592268   -0.000760322
     12        1          -0.008027218    0.000693827   -0.011626766
     13        1           0.002226515    0.000910098    0.011343989
     14        6          -0.016623144    0.014376603   -0.001560609
     15        8           0.029591614   -0.019071192    0.001057767
     16        8          -0.017922231   -0.016004736    0.006431001
     17        1          -0.002503300   -0.000494855   -0.004270833
 -------------------------------------------------------------------
 Cartesian Forces:  Max     0.029591614 RMS     0.009092201

 GradGradGradGradGradGradGradGradGradGradGradGradGradGradGradGradGradGrad
 Berny optimization.
 Using GEDIIS/GDIIS optimizer.
 FormGI is forming the generalized inverse of G from B-inverse, IUseBI=4.
 Internal  Forces:  Max     0.034997111 RMS     0.006989386
 Search for a local minimum.
 Step number   3 out of a maximum of   86
 All quantities printed in internal units (Hartrees-Bohrs-Radians)
 Mixed Optimization -- RFO/linear search
 Update second derivatives using D2CorX and points    2    3
 DE= -3.66D-02 DEPred=-4.05D-02 R= 9.04D-01
 TightC=F SS=  1.41D+00  RLast= 1.21D+00 DXNew= 8.4853D-01 3.6210D+00
 Trust test= 9.04D-01 RLast= 1.21D+00 DXMaxT set to 8.49D-01
 ITU=  1  1  0
 Use linear search instead of GDIIS.
     Eigenvalues ---    0.00237   0.00495   0.00536   0.00824   0.01290
     Eigenvalues ---    0.01403   0.01521   0.02067   0.02068   0.02069
     Eigenvalues ---    0.02073   0.02075   0.02077   0.02093   0.11748
     Eigenvalues ---    0.15987   0.15993   0.15999   0.16000   0.16054
     Eigenvalues ---    0.16417   0.16623   0.22062   0.23214   0.24606
     Eigenvalues ---    0.25000   0.25007   0.25408   0.26115   0.32052
     Eigenvalues ---    0.37104   0.37230   0.37230   0.37230   0.37233
     Eigenvalues ---    0.37401   0.41044   0.41313   0.42270   0.45186
     Eigenvalues ---    0.45340   0.45457   0.51104   0.55488   0.97786
 RFO step:  Lambda=-1.29401679D-02 EMin= 2.36786593D-03
 Quartic linear search produced a step of  0.49974.
 Iteration  1 RMS(Cart)=  0.05996719 RMS(Int)=  0.06593320
 Iteration  2 RMS(Cart)=  0.05447426 RMS(Int)=  0.02613818
 Iteration  3 RMS(Cart)=  0.02873692 RMS(Int)=  0.00233390
 Iteration  4 RMS(Cart)=  0.00201025 RMS(Int)=  0.00107277
 Iteration  5 RMS(Cart)=  0.00000377 RMS(Int)=  0.00107277
 Iteration  6 RMS(Cart)=  0.00000000 RMS(Int)=  0.00107277
 Variable       Old X    -DE/DX   Delta X   Delta X   Delta X     New X
                                 (Linear)    (Quad)   (Total)
    R1        2.66961   0.00784   0.01202   0.00019   0.01217   2.68178
    R2        2.67251   0.00626   0.01081   0.00141   0.01218   2.68469
    R3        2.66876   0.02102  -0.04971   0.07105   0.02134   2.69010
    R4        2.59167  -0.00354  -0.01714   0.00247  -0.01466   2.57701
    R5        2.05541  -0.00280   0.00611  -0.00440   0.00172   2.05712
    R6        2.70301   0.00761   0.01785   0.00519   0.02307   2.72609
    R7        2.05739  -0.00130   0.00830  -0.00464   0.00366   2.06105
    R8        2.69839   0.01055   0.01812   0.00911   0.02726   2.72564
    R9        2.66273  -0.01198  -0.07427   0.00188  -0.07238   2.59034
   R10        2.59552  -0.00462  -0.01612  -0.00089  -0.01700   2.57852
   R11        2.05655  -0.00142   0.00763  -0.00363   0.00400   2.06055
   R12        2.05413  -0.00327   0.00505  -0.00366   0.00139   2.05553
   R13        2.05313  -0.00274   0.00599  -0.00538   0.00061   2.05374
   R14        2.05976  -0.00268   0.00799  -0.00660   0.00139   2.06115
   R15        2.28401   0.03500  -0.01548   0.03512   0.01963   2.30364
   R16        2.58281   0.02540  -0.01746   0.04520   0.02774   2.61056
   R17        1.83003  -0.00100   0.00439  -0.00425   0.00014   1.83017
    A1        2.04688  -0.00359  -0.01769   0.00161  -0.01614   2.03073
    A2        2.07982   0.00188  -0.00119   0.00339   0.00224   2.08206
    A3        2.15648   0.00170   0.01888  -0.00501   0.01391   2.17039
    A4        2.10920   0.00493   0.00989   0.00554   0.01536   2.12457
    A5        2.06280  -0.00183  -0.01002   0.00079  -0.00925   2.05354
    A6        2.11039  -0.00310  -0.00018  -0.00564  -0.00585   2.10454
    A7        2.15812  -0.00408   0.01174  -0.01364  -0.00187   2.15624
    A8        2.08256   0.00117  -0.00147   0.00085  -0.00065   2.08190
    A9        2.04241   0.00291  -0.01031   0.01273   0.00238   2.04479
   A10        1.98595   0.00172  -0.02541   0.01467  -0.01083   1.97512
   A11        2.16175  -0.00303   0.01508  -0.01522  -0.00036   2.16139
   A12        2.13547   0.00132   0.01069   0.00058   0.01105   2.14651
   A13        2.15334  -0.00174   0.01435  -0.01245   0.00193   2.15527
   A14        2.03909   0.00257  -0.01203   0.01546   0.00341   2.04250
   A15        2.09071  -0.00082  -0.00234  -0.00297  -0.00533   2.08538
   A16        2.11269   0.00276   0.00706   0.00459   0.01157   2.12426
   A17        2.07403  -0.00053  -0.00507   0.00085  -0.00425   2.06978
   A18        2.09607  -0.00223  -0.00217  -0.00501  -0.00720   2.08887
   A19        2.11102   0.00196   0.01102   0.01525   0.02094   2.13196
   A20        2.05360   0.00225  -0.00900   0.03898   0.02465   2.07826
   A21        2.06418  -0.00308  -0.00972   0.01127  -0.00385   2.06033
   A22        2.26344  -0.00962   0.03616  -0.03808  -0.00203   2.26141
   A23        1.96086   0.01157  -0.02405   0.03544   0.01128   1.97214
   A24        2.05888  -0.00195  -0.01211   0.00267  -0.00955   2.04933
   A25        1.79546   0.00481  -0.01597   0.00380  -0.01217   1.78329
    D1        0.01028  -0.00001   0.00482  -0.00781  -0.00304   0.00724
    D2        3.10952   0.00008  -0.00617   0.01045   0.00433   3.11384
    D3       -3.12942  -0.00005   0.00331  -0.00717  -0.00390  -3.13332
    D4       -0.03018   0.00005  -0.00768   0.01108   0.00346  -0.02672
    D5        0.00621   0.00000   0.00148  -0.00690  -0.00550   0.00071
    D6        3.11784  -0.00007  -0.01024   0.00948  -0.00081   3.11702
    D7       -3.13738   0.00004   0.00300  -0.00756  -0.00460   3.14121
    D8       -0.02575  -0.00004  -0.00872   0.00883   0.00008  -0.02566
    D9        0.03924   0.00022   0.00959   0.00604   0.01565   0.05489
   D10       -3.10109  -0.00004   0.01269  -0.02585  -0.01311  -3.11420
   D11       -3.10032   0.00019   0.00809   0.00671   0.01475  -3.08558
   D12        0.04253  -0.00007   0.01118  -0.02518  -0.01401   0.02851
   D13       -0.01652   0.00017  -0.00371   0.01944   0.01578  -0.00073
   D14        3.10891   0.00008  -0.00760   0.01485   0.00728   3.11619
   D15       -3.11460   0.00003   0.00770   0.00052   0.00827  -3.10632
   D16        0.01083  -0.00005   0.00380  -0.00407  -0.00023   0.01060
   D17        0.00559  -0.00019  -0.00373  -0.01468  -0.01816  -0.01256
   D18       -3.14128   0.00040   0.01407  -0.00808   0.00583  -3.13545
   D19       -3.12018  -0.00009   0.00005  -0.01008  -0.00980  -3.12997
   D20        0.01613   0.00050   0.01785  -0.00349   0.01420   0.03033
   D21        0.01149   0.00007   0.01025  -0.00092   0.00919   0.02068
   D22       -3.11997   0.00025   0.01376  -0.00476   0.00879  -3.11119
   D23       -3.12490  -0.00050  -0.00737  -0.00735  -0.01453  -3.13943
   D24        0.02681  -0.00032  -0.00387  -0.01119  -0.01493   0.01188
   D25       -2.34954  -0.01282  -0.28203  -0.29173  -0.57444  -2.92398
[...]
   yx        -0.499386D+02     -0.740014D+01     -0.823376D+01
   yy         0.115308D+03      0.170869D+02      0.190118D+02
   zx         0.416801D+02      0.617635D+01      0.687212D+01
   zy        -0.458848D+02     -0.679943D+01     -0.756539D+01
   zz         0.170227D+03      0.252251D+02      0.280667D+02

 ----------------------------------------------------------------------
 1\1\GINC-N12\Freq\RB3LYP\def2TZVP\C8H7O2(1-)\UNKNOWN\22-Jan-2025\0\\#N
  Geom=AllCheck Guess=TCheck SCRF=Check GenChk RB3LYP/def2TZVP Freq\\op
 t\\-1,1\C,-0.052048706,-1.8890356584,-0.0076662803\C,1.166492481,-1.16
 25499479,-0.1355353696\C,1.2053376417,0.1990563946,-0.1355333088\C,0.0
 128679662,1.0155611847,-0.0057376379\C,-1.2140613924,0.2527508191,0.12
 28995146\C,-1.2378201323,-1.1105749519,0.1212797929\H,2.0833646614,-1.
 7326144783,-0.2351537973\H,2.1595061027,0.7081352508,-0.2358463852\H,-
 2.1447359632,0.8034779823,0.2239204424\H,-2.1858930231,-1.6256869955,0
 .2209056483\C,0.0435582909,2.3855620762,-0.0048046288\H,-0.8638252249,
 2.9693722685,0.09384546\H,0.9763378473,2.9279298542,-0.1027169751\C,-0
 .0374127031,-3.312695639,-0.0135579339\O,0.9319742401,-4.0674047086,-0
 .1193396408\O,-1.2957004489,-3.9059779798,0.1189641973\H,-1.0890132474
 ,-4.849932001,0.0940189121\\Version=ES64L-G16RevA.03\State=1-A\HF=-459
 .7383183\RMSD=6.846e-09\RMSF=7.754e-07\ZeroPoint=0.1278067\Thermal=0.1
 36379\Dipole=-0.5468815,-0.5825094,0.0565878\DipoleDeriv=-0.5192566,-0
 .080806,0.0369519,0.0086635,-2.2414556,-0.0072412,0.0372235,0.0023247,
 -0.1747594,0.2575471,0.6024611,-0.0385627,0.2711767,0.9270934,-0.02575
 01,-0.0395774,-0.0611198,-0.1168622,0.0715436,0.5407939,-0.0285985,-0.
 089253,-0.7793073,0.007791,-0.0305223,-0.0594594,-0.2087416,-0.0655964
 ,0.048083,0.0019105,0.0306115,1.5495649,0.0016331,0.0018574,-0.0002241
 ,-0.0492789,0.056358,-0.597044,-0.0307984,0.07977,-0.7784522,-0.010239
 1,-0.0287333,0.0620158,-0.2118222,0.2312613,-0.5530936,-0.0386594,-0.2
 784559,1.0084594,0.0331535,-0.0378146,0.062469,-0.1108843,-0.0801585,0
 .0659213,0.0207931,0.0972752,0.0478652,-0.0105826,0.0208899,-0.0072379
 ,0.1104812,-0.1618339,-0.0784694,0.0296238,-0.1123838,-0.0316546,0.011
 5417,0.0295199,0.0079191,0.1147642,-0.1551609,0.0842436,0.0293734,0.11
 60001,-0.0396733,-0.0128618,0.0294708,-0.0094752,0.1144424,-0.1011305,
 -0.0759351,0.0226473,-0.0848415,0.055223,0.0088788,0.0226181,0.0079255
 ,0.1108203,0.1172486,-0.0370556,-0.079473,-0.02556,-1.4069156,0.000342
 7,-0.0794381,0.0015408,-0.6176903,-0.1373427,0.1487111,0.0340182,0.047
 2788,-0.0974088,-0.0058882,0.0337071,-0.016709,0.1734186,-0.1452447,-0
 .146251,0.0340666,-0.044075,-0.0889407,0.0038865,0.0343801,0.0148001,0
 .1744522,1.4556724,-0.2416658,-0.1354423,-0.0170657,3.7267827,0.012584
 2,-0.1347586,0.0365498,0.2083363,-1.0117801,1.2081257,0.0673672,0.4182
 388,-2.0308507,-0.0495702,0.0649593,-0.1338854,-0.422551,-1.0743437,-1
 .0611548,0.071416,-0.4562062,-1.0540782,0.0466345,0.0732625,0.1112219,
 -0.3825566,0.2622169,0.1731356,0.0033665,0.0388264,0.2337485,-0.004312
 8,0.0029559,-0.0186557,0.2884312\Polar=102.8032519,1.2396018,227.60815
 8,-4.5302512,0.3782518,60.8143511\Quadrupole=6.4848737,-13.0209748,6.5
 361011,3.6521061,0.016954,-0.4495216\PG=C01 [X(C8H7O2)]\NImag=0\\0.619
 88041,-0.00571104,0.67562645,-0.05421957,0.00232378,0.11792212,-0.2314
 3176,-0.07679097,0.01827474,0.64871645,-0.04847372,-0.13358138,0.00494
 461,-0.04203361,0.74533995,0.01836125,0.00796744,-0.05998829,-0.055436
 66,0.00636031,0.13656122,0.00694063,-0.02574743,0.00034478,-0.12104622
 ,-0.02519375,0.00784959,0.61439890,-0.04639729,-0.03916499,0.00480038,
 0.01153038,-0.41782866,-0.00236116,0.05609995,0.74475495,0.00028220,0.
 00259640,0.01088292,0.00796134,0.00155850,-0.04764003,-0.05434069,-0.0
 0403417,0.10957400,-0.03212094,0.00101427,0.00240489,0.02353476,0.0405
 4914,-0.00242706,-0.20591514,0.04254609,0.01570092,0.55217880,0.001365
 72,0.01687763,-0.00006498,0.02967108,-0.03423545,-0.00327113,0.0567117
 8,-0.13500078,-0.00628295,0.00428935,0.73063204,0.00240596,-0.00002739
 ,-0.00987831,-0.00246031,-0.00443189,-0.00011230,0.01574386,-0.0047710
 6,-0.06175680,-0.04244587,0.00130855,0.15896742,0.00948560,0.02364736,
 0.00014948,-0.00223454,-0.00037428,-0.00022672,-0.03275752,-0.00369758
 ,0.00384572,-0.21046209,-0.05355435,0.01593541,0.61026296,0.04411153,-
 0.04209915,-0.00486818,-0.01612650,-0.01959813,0.00167503,0.00652341,0
 .03043585,-0.00061404,-0.03953360,-0.13119142,0.00400137,-0.04877604,0
 .74659162,0.00021155,-0.00268329,0.01018030,-0.00027447,-0.00000648,-0
 .00431769,0.00387726,0.00047706,0.00296317,0.01597783,0.00549829,-0.06
 133155,-0.05443695,0.00717400,0.10750012,-0.22777371,0.08135379,0.0186
 7953,-0.05435229,-0.00639797,0.00666239,-0.00163534,0.01503727,-0.0002
 9045,0.02001285,-0.03197315,-0.00228567,-0.12046750,-0.02558289,0.0079
 4138,0.65720621,0.05363657,-0.14069244,-0.00598603,0.01012530,0.031428
 29,-0.00101006,-0.00019572,-0.02029781,-0.00002634,-0.04325597,-0.0307
 8004,0.00452504,0.01167739,-0.41392912,-0.00237054,0.04647574,0.731917
 15,0.01859485,-0.00894473,-0.05711482,0.00671280,0.00075373,0.00752846
 ,-0.00033659,-0.00165242,-0.00475280,-0.00232017,0.00332015,-0.0002267
 6,0.00805477,0.00160750,-0.04619872,-0.05639597,-0.00311851,0.13354784
 ,-0.01982906,0.01577185,0.00248836,-0.25387066,0.11855952,0.02361970,0
 .00372101,-0.00224422,-0.00016337,0.00173355,-0.00112079,0.00096322,0.
 00050981,-0.00060208,-0.00004903,-0.00341892,-0.00436119,0.00066685,0.
 27001207,-0.01164382,0.01149159,0.00126883,0.11980675,-0.12983108,-0.0
 1307591,0.02816615,-0.01265067,-0.00305232,-0.00218090,-0.00471528,0.0
 0018558,-0.00026298,-0.00030141,0.00002697,-0.00291308,-0.00146261,0.0
 0029751,-0.13090404,0.13651214,0.00240465,-0.00165803,0.00276815,0.023
 62365,-0.01294259,-0.03856609,-0.00007066,0.00019395,0.00226276,0.0009
 5991,0.00007240,0.01068625,-0.00004798,0.00006322,0.00007296,0.0006712
 9,0.00045213,0.00288178,-0.02649297,0.01431277,0.02845519,0.00270682,0
 .00009103,0.00063777,0.00053381,0.00077030,-0.00012631,-0.26170446,-0.
 10798816,0.02473620,-0.02043424,-0.01629811,0.00229235,-0.00250123,0.0
 0460056,0.00063847,-0.00006239,0.00098952,0.00006080,0.00124299,-0.000
 47804,-0.00070255,0.27967473,0.00227559,-0.00454460,-0.00028319,-0.031
 03841,-0.01322696,0.00327522,-0.10710798,-0.11239348,0.01117403,0.0142
 8976,0.00873114,-0.00150354,0.00269251,-0.00120684,-0.00030132,0.00071
 999,-0.00069031,-0.00008044,0.00044707,0.00109629,-0.00002817,0.118522
 33,0.12065866,0.00064428,-0.00005000,0.00860900,-0.00022319,-0.0001204
 3,-0.00064798,0.02473904,0.01126781,-0.02952378,0.00238547,0.00176221,
 0.00125544,0.00063259,-0.00050505,0.00327854,0.00005999,-0.00010925,0.
 00047215,-0.00069971,0.00007061,-0.00524925,-0.02729175,-0.01234828,0.
 02352387,0.00256284,-0.00037333,0.00064384,-0.00014633,-0.00102803,0.0
 0004362,-0.00286243,-0.00451714,0.00065784,-0.02028423,0.01762148,0.00
 236485,-0.25182052,0.11419745,0.02442654,0.00178751,-0.00160959,-0.000
 30876,-0.00001477,0.00012271,-0.00010253,-0.00143983,0.00082974,0.0001
 2171,0.26885032,-0.00265203,-0.00443866,0.00024334,-0.00073785,-0.0006
 0076,0.00007603,-0.00261492,-0.00090851,0.00026590,-0.01299917,0.00859
 710,0.00140955,0.11323756,-0.12218105,-0.01237972,0.03030880,-0.014517
 74,-0.00327628,0.00015398,0.00001228,-0.00001341,-0.00074316,0.0004952
 3,0.00008184,-0.12498823,0.13143669,0.00063701,0.00000007,0.00853744,0
 .00004447,0.00010696,0.00028726,0.00066369,0.00046892,0.00336036,0.002
 27167,-0.00185863,0.00111838,0.02442345,-0.01248242,-0.02888912,-0.000
 21154,0.00013091,-0.00103608,-0.00010246,-0.00001008,-0.00096795,0.000
 11688,-0.00008606,-0.00033630,-0.02689845,0.01367995,0.02333776,-0.019
 06734,-0.01469200,0.00221558,-0.00306759,0.00462609,0.00068427,0.00059
 444,0.00052377,-0.00004856,0.00193210,0.00075148,0.00093186,0.00199560
 ,0.00133059,0.00001047,-0.26779291,-0.11090850,0.02452814,-0.00126758,
 -0.00084987,0.00021589,-0.00003109,-0.00015310,-0.00011009,0.00130419,
 -0.00043813,-0.00069615,0.28446105,0.01347007,0.01143083,-0.00140941,0
 .00311904,-0.00174164,-0.00034804,0.00021546,-0.00032023,-0.00002433,0
 .00187282,-0.00501187,-0.00024765,-0.02943276,-0.01158722,0.00310010,-
 0.11256605,-0.11709911,0.01176441,0.00088970,0.00050354,-0.00009583,-0
 .00012390,0.00003803,0.00001656,0.00048650,0.00103765,-0.00003289,0.12
 310731,0.12478464,0.00230155,0.00159655,0.00186772,0.00067969,-0.00050
 887,0.00313705,-0.00004951,-0.00005721,0.00012979,0.00093541,-0.000127
 94,0.01054044,-0.00008334,-0.00018376,0.00206410,0.02452292,0.01158759
 ,-0.03741234,0.00022116,0.00008986,0.00075563,-0.00011003,0.00001969,-
 0.00104632,-0.00069334,0.00006579,-0.00513099,-0.02734695,-0.01283539,
 0.02762236,0.00829586,-0.00060125,-0.00098011,-0.01091105,-0.00541757,
 0.00145439,0.00405223,0.03888181,0.00068842,-0.10716078,-0.00641780,0.
 00624808,0.00114942,-0.04098415,0.00076337,-0.01068078,0.00669898,0.00
 145773,-0.00006794,0.00123780,-0.00000466,0.00106034,0.00097057,-0.000
 24111,0.00104635,-0.00094257,-0.00024791,-0.00017196,-0.00126942,0.000
 00271,0.62203590,-0.00110542,-0.01783719,0.00006641,0.00288516,0.01334
 537,-0.00027602,0.02274722,-0.04259682,-0.00258780,-0.00629709,-0.3926
 7985,-0.00038491,-0.02498021,-0.03970879,0.00251557,-0.00153781,0.0130
 5448,0.00019554,0.00020104,0.00006130,-0.00002083,-0.00086904,0.001526
 82,0.00010109,0.00089596,0.00153250,-0.00008725,-0.00024677,0.00019014
 ,0.00002726,0.00203920,0.70837512,-0.00098168,0.00001188,-0.00076363,0
 .00147973,0.00061060,0.00271132,0.00063905,-0.00431004,0.00930329,0.00
 624846,-0.00037174,-0.04911373,0.00081232,0.00422412,0.00940364,0.0014
 3265,-0.00068347,0.00262932,-0.00000779,-0.00013150,-0.00014620,-0.000
 24678,-0.00009517,-0.00120015,-0.00024223,0.00010914,-0.00122269,0.000
 00579,0.00013643,-0.00011080,-0.06050355,0.00178639,0.06165734,0.00043
 514,0.00000100,-0.00001982,-0.00034889,-0.00034984,0.00023415,0.001294
 33,0.00015450,0.00061598,0.00086270,-0.00130398,-0.00009668,0.00039348
 ,-0.00165498,-0.00053187,0.00030601,0.00061447,-0.00013958,-0.00000151
 ,0.00006892,-0.00009630,0.00038743,-0.00028512,-0.00010330,0.00059243,
 0.00050272,-0.00001958,0.00003064,0.00010426,0.00002624,-0.24979260,0.
 12446643,0.02557982,0.26238212,-0.00031012,-0.00025677,0.00003155,0.00
 220122,0.00013496,-0.00024029,-0.00300683,-0.00499516,0.00028399,0.028
 81615,-0.01288781,-0.00311546,0.00209558,0.00156284,-0.00020498,-0.000
 40731,-0.00002908,0.00004653,-0.00000673,-0.00049557,0.00000201,0.0003
 4680,0.00012916,-0.00003487,-0.00120171,0.00008175,0.00012731,-0.00003
 298,-0.00006342,0.00000249,0.11993108,-0.13149784,-0.01316353,-0.13587
 576,0.13923762,-0.00002063,-0.00000155,0.00025163,0.00024189,0.0000319
 1,0.00182856,0.00060624,-0.00005337,0.00699576,-0.00000413,0.00009931,
 -0.00000443,-0.00052029,0.00019537,-0.00448544,-0.00014276,-0.00006250
 ,-0.00100419,-0.00009653,-0.00000614,-0.00089531,-0.00010138,0.0000325
 8,-0.00056100,-0.00002483,-0.00005460,0.00039714,0.00002582,-0.0000121
 5,0.00027066,0.02556552,-0.01364720,-0.01650944,-0.02709299,0.01489312
 ,0.01541721,0.00045517,-0.00003434,-0.00004345,0.00028995,-0.00063800,
 -0.00013180,0.00037102,0.00172808,-0.00052805,-0.00037127,0.00072200,0
 .00005322,0.00140585,-0.00044888,0.00059264,-0.00042853,0.00039885,0.0
 0025447,0.00002187,-0.00010335,0.00002759,0.00061904,-0.00053181,-0.00
 002648,0.00038294,0.00027337,-0.00010211,-0.00000864,-0.00009256,-0.00
 009309,-0.26067366,-0.11874138,0.02599507,-0.01665927,-0.01238293,0.00
 158324,0.27446349,0.00025471,-0.00027496,-0.00002818,0.00039590,-0.000
 00572,-0.00003943,-0.00205236,0.00157088,0.00023809,-0.02936651,-0.011
 65800,0.00309890,0.00269903,-0.00512887,-0.00032523,-0.00215535,0.0002
 4407,0.00022482,0.00002471,-0.00006171,-0.00000370,0.00118015,0.000062
 91,-0.00012698,-0.00035930,0.00013229,0.00004054,-0.00003099,-0.000505
 47,0.00000448,-0.11418986,-0.12076996,0.01186153,0.01355531,0.00891019
 ,-0.00141519,0.12985135,0.12731139,-0.00004269,0.00000276,0.00005366,-
 0.00012859,0.00007100,-0.00091247,-0.00053971,-0.00016549,-0.00456800,
 -0.00003925,-0.00011350,0.00010999,0.00060232,0.00001088,0.00690580,0.
 00024671,-0.00004794,0.00191767,0.00002798,0.00000999,0.00028030,-0.00
 002121,0.00005579,0.00038861,-0.00010403,-0.00002700,-0.00057053,-0.00
 009290,0.00001099,-0.00086806,0.02600943,0.01234784,-0.01648861,0.0016
 6261,0.00135369,-0.00164627,-0.02756732,-0.01350954,0.01539492,-0.1051
 3876,-0.01196726,0.00452203,0.00946395,-0.02678057,-0.00157336,-0.0072
 9413,-0.00400904,0.00112262,-0.00280242,-0.00048482,0.00021966,-0.0072
 5373,0.00394961,0.00118888,0.00946470,0.02820199,-0.00178337,-0.003028
 21,-0.00148165,0.00010029,-0.00017888,-0.00154568,0.00022613,-0.000067
 93,0.00179988,0.00025479,-0.00247371,0.00077939,0.00004411,0.00080498,
 -0.00036039,-0.00011781,0.00005490,-0.00001897,0.00000005,-0.00000248,
 -0.00004201,-0.00000002,0.63420577,0.00502054,-0.25337679,-0.00111671,
 -0.02885103,-0.04446059,0.00295847,-0.00482357,0.01693268,0.00055619,-
 0.00019821,-0.01370111,-0.00001856,0.00616476,0.01627566,-0.00062012,0
 .02380460,-0.04002434,-0.00263837,0.00445601,0.00059842,-0.00046764,0.
 00057702,0.00063160,-0.00006573,-0.00060482,0.00058898,0.00005946,-0.0
 0373546,0.00114869,0.00040856,0.00040354,0.01556395,0.00000578,-0.0003
 3031,0.00069629,0.00003713,0.00036894,0.00070758,-0.00003729,-0.164333
 13,0.76264115,0.00457362,0.00069708,-0.06292309,-0.00157954,0.00273724
 ,-0.00433361,0.00112005,0.00046929,0.00321731,0.00022057,0.00001233,-0
 .00075379,0.00119565,-0.00038363,0.00364272,-0.00179681,-0.00310790,-0
 .00786396,0.00011832,0.00016624,-0.00205878,0.00023261,0.00016088,0.00
 195932,0.00024743,-0.00019725,0.00224020,0.00003047,-0.00007335,-0.002
 08575,-0.00011544,0.00008668,-0.00027551,-0.00000093,0.00000397,0.0000
 5580,0.00000125,0.00000664,-0.00000147,-0.04709664,0.01926180,0.202801
 67,-0.00068269,0.03925378,0.00207663,-0.01005918,-0.01000744,0.0009364
 1,0.00107680,0.00457402,-0.00011142,-0.00027592,-0.00226585,0.00004034
 ,0.00190148,0.00254683,-0.00027278,0.00457240,-0.00538979,0.00027200,0
 .00377282,0.00058024,-0.00043658,0.00018252,0.00021729,-0.00002414,-0.
 00007268,0.00006155,-0.00011006,0.00058717,-0.00062829,-0.00004354,0.0
 0057351,0.00408726,-0.00003862,-0.00008524,0.00011599,-0.00000014,0.00
 019491,0.00031435,-0.00001625,-0.38782372,0.21800179,0.03403540,0.4850
 4992,0.04484481,-0.05068587,-0.00499510,0.00832855,0.00817541,-0.00086
 119,0.00221330,-0.00454932,-0.00024978,0.00133909,0.00451302,-0.000129
 64,0.00041541,-0.00603608,-0.00006041,-0.01123915,0.00215031,0.0011841
 3,-0.00063413,-0.00104983,0.00006552,-0.00039746,-0.00034349,0.0000415
 5,0.00026183,-0.00101555,-0.00002769,0.00103978,0.00026105,-0.00011081
 ,-0.00070741,-0.00587469,0.00005711,0.00017068,-0.00030967,-0.00001886
 ,-0.00029009,-0.00039497,0.00002969,0.22368885,-0.29196533,-0.02453894
 ,-0.27709080,0.31049065,0.00209370,-0.00439828,0.01741517,0.00099211,0
 .00109623,-0.00110552,-0.00011854,-0.00050182,-0.00008545,0.00005128,0
 .00025509,0.00016164,-0.00027918,-0.00028801,-0.00069678,0.00025416,0.
 00055978,0.00724842,-0.00044026,-0.00006413,-0.00028643,-0.00002600,-0
 .00002409,-0.00004699,-0.00010943,-0.00000629,-0.00109364,-0.00003851,
 0.00006727,0.00020115,-0.00005340,-0.00045447,0.00009775,0.00000006,-0
 .00001305,-0.00008959,-0.00001807,-0.00003486,0.00003577,0.03405269,-0
 .02393196,-0.07892165,-0.04896798,0.03042072,0.03956560,-0.00765426,-0
 .02525587,0.00192014,0.00450204,0.00391314,-0.00005913,0.00143010,-0.0
 0233637,-0.00018259,-0.00026057,0.00243335,0.00004328,-0.00006046,-0.0
 0389067,-0.00003025,-0.00627171,0.00649050,0.00069100,0.00062776,0.000
 92636,-0.00006859,-0.00006108,-0.00017893,-0.00006379,0.00021742,-0.00
 026858,-0.00002512,0.00241575,0.00007123,-0.00022609,0.00034607,-0.003
 51417,-0.00003973,0.00016559,-0.00028659,-0.00002592,-0.00008144,-0.00
 011664,0.00001340,-0.14812856,-0.00089723,0.00966072,-0.09899394,-0.00
 087889,0.01316236,0.32035602,-0.04512597,-0.03101450,0.00468943,0.0072
 5841,-0.00209516,-0.00079290,-0.00138416,-0.00334257,0.00013828,-0.000
 91402,0.00272830,0.00010568,-0.00172476,-0.00221409,0.00017808,-0.0029
 7819,0.00034014,0.00031896,-0.00050442,0.00034415,0.00005502,-0.000200
 23,-0.00086481,0.00002073,0.00028032,-0.00023703,-0.00003061,-0.000253
 51,-0.00316406,0.00001657,0.00038999,-0.00305033,-0.00005126,0.0001731
 1,-0.00023988,-0.00001898,-0.00009840,-0.00015993,0.00000989,-0.042068
 90,-0.13309342,0.00426128,0.01759931,0.03244483,-0.00185407,-0.0573932
 6,0.60557721,0.00185977,0.00256825,0.01086152,-0.00004898,-0.00043585,
 0.00384089,-0.00017975,0.00023994,-0.00019431,0.00003311,-0.00025172,0
 .00007103,-0.00002369,0.00040931,-0.00022959,0.00066224,-0.00069190,-0
 .00005592,-0.00007293,-0.00009772,-0.00003355,-0.00006388,0.00001846,-
 0.00064685,-0.00002346,0.00002798,-0.00000769,-0.00022711,-0.00001809,
 0.00031974,-0.00002771,0.00036566,0.00007955,-0.00002455,0.00003008,-0
 .00006656,0.00001344,0.00001182,0.00004585,0.00953499,-0.00013410,-0.0
 5862908,0.01321847,0.00011847,0.02291600,-0.03132976,0.00788688,0.0318
 9377,-0.00706393,0.00004040,0.00090519,0.00042757,-0.00172341,0.000135
 28,-0.00066423,0.00011392,0.00005390,-0.00016718,-0.00014738,0.0000464
 4,0.00045338,0.00033980,-0.00003306,-0.00046561,0.00041144,-0.00000897
 ,-0.00014322,-0.00009120,0.00001956,0.00000552,-0.00012383,-0.00002564
 ,-0.00003527,0.00004679,0.00000141,0.00055990,-0.00000282,-0.00008792,
 0.00009411,0.00033001,-0.00001469,-0.00001726,0.00002310,0.00000684,0.
 00002106,0.00003750,-0.00001049,0.01019823,-0.05502345,-0.00084676,0.0
 0008183,0.00893561,-0.00055499,-0.06854873,0.12694468,0.00669979,0.065
 26382,-0.00356014,0.00254080,0.00038346,0.00025659,-0.00121845,-0.0000
 3638,-0.00055054,0.00035465,0.00006034,0.00002880,-0.00021762,-0.00000
 456,0.00017335,0.00031621,-0.00001795,0.00005074,0.00038816,-0.0000025
 4,-0.00012628,-0.00005155,0.00001320,0.00002040,-0.00009936,-0.0000017
 8,-0.00001386,-0.00001517,0.00000150,-0.00003772,0.00009845,0.00000513
 ,-0.00002293,0.00036580,0.00000374,-0.00001142,0.00002239,0.00000114,0
 .00001914,0.00002028,-0.00000175,-0.00532731,-0.03916341,0.00043764,0.
 00802975,0.00418953,-0.00082807,0.08118259,-0.46195887,-0.01004747,-0.
 08011117,0.49442816,0.00089420,-0.00000096,0.00131852,0.00014132,0.000
 17502,0.00172922,0.00005188,-0.00001061,-0.00016819,0.00004696,0.00001
 426,0.00026710,-0.00003356,-0.00003572,0.00013754,-0.00001006,-0.00004
 100,-0.00056005,0.00001945,0.00000945,0.00004053,-0.00002519,0.0000136
 2,-0.00022833,0.00000123,-0.00000497,-0.00002353,-0.00008802,0.0000013
 9,-0.00025439,-0.00001577,-0.00003397,-0.00005146,0.00000674,-0.000002
 54,0.00004547,-0.00001055,-0.00000370,-0.00007716,-0.00069507,0.005743
 08,0.00392967,-0.00055774,-0.00092475,-0.00531544,0.00656008,-0.014932
 96,-0.01016480,-0.00628590,0.01003436,0.00937533\\0.00000007,-0.000000
 22,-0.00000011,-0.00000009,0.00000131,0.00000028,0.00000065,-0.0000016
 5,0.00000009,-0.00000106,0.00000101,-0.00000106,0.00000091,-0.00000153
 ,0.00000012,-0.00000125,0.00000236,0.00000033,-0.00000006,-0.00000031,
 -0.00000009,0.00000030,0.00000003,-0.00000024,-0.00000019,0.00000029,-
 0.00000007,0.00000016,0.,-0.00000026,0.00000153,0.00000049,0.00000074,
 0.00000030,-0.00000032,-0.00000009,-0.00000024,-0.00000018,-0.00000003
 ,0.00000056,-0.00000096,0.00000032,-0.00000175,0.00000039,0.00000010,0
 .00000132,-0.00000011,-0.00000002,-0.00000117,-0.00000061,0.\\\@


 I DO NOT DEFINE TIME, SPACE, PLACE, AND MOTION, AS BEING WELL KNOWN TO ALL.
                                            -- NEWTON (1642-1726), PRINCIPIA
 Job cpu time:       0 days  0 hours 25 minutes 57.4 seconds.
 Elapsed time:       0 days  0 hours 25 minutes 59.4 seconds.
 File lengths (MBytes):  RWF=    184 Int=      0 D2E=      0 Chk=     12 Scr=      1
 Normal termination of Gaussian 16 at Wed Jan 22 14:23:16 2025.
