 Entering Gaussian System, Link 0=g16
 Initial command:
 /sw/cluster/pub/apps//g16/l1.exe "/data/mmaximo/28488/Gau-141951.inp" -scrdir="/data/mmaximo/28488/"
 Entering Link 1 = /sw/cluster/pub/apps//g16/l1.exe PID=    141952.
  
 Copyright (c) 1988,1990,1992,1993,1995,1998,2003,2009,2016,
            Gaussian, Inc.  All Rights Reserved.
  
 This is part of the Gaussian(R) 16 program.  It is based on
 the Gaussian(R) 09 system (copyright 2009, Gaussian, Inc.),
 the Gaussian(R) 03 system (copyright 2003, Gaussian, Inc.),
 the Gaussian(R) 98 system (copyright 1998, Gaussian, Inc.),
 the Gaussian(R) 94 system (copyright 1995, Gaussian, Inc.),
 the Gaussian 92(TM) system (copyright 1992, Gaussian, Inc.),
 the Gaussian 90(TM) system (copyright 1990, Gaussian, Inc.),
 the Gaussian 88(TM) system (copyright 1988, Gaussian, Inc.),
 the Gaussian 86(TM) system (copyright 1986, Carnegie Mellon
 University), and the Gaussian 82(TM) system (copyright 1983,
 Carnegie Mellon University). Gaussian is a federally registered
 trademark of Gaussian, Inc.
  
 This software contains proprietary and confidential information,
 including trade secrets, belonging to Gaussian, Inc.
  
 This software is provided under written license and may be
 used, copied, transmitted, or stored only in accord with that
 written license.
  
 The following legend is applicable only to US Government
 contracts under FAR:
  
                    RESTRICTED RIGHTS LEGEND
  
 Use, reproduction and disclosure by the US Government is
 subject to restrictions as set forth in subparagraphs (a)
 and (c) of the Commercial Computer Software - Restricted
 Rights clause in FAR 52.227-19.
  
 Gaussian, Inc.
 340 Quinnipiac St., Bldg. 40, Wallingford CT 06492
  
  
 ---------------------------------------------------------------
 Warning -- This program may not be used in any manner that
 competes with the business of Gaussian, Inc. or will provide
 assistance to any competitor of Gaussian, Inc.  The licensee
 of this program is prohibited from giving any competitor of
 Gaussian, Inc. access to this program.  By using this program,
 the user acknowledges that Gaussian, Inc. is engaged in the
 business of creating and licensing software in the field of
 computational chemistry and represents and warrants to the
 licensee that it is not a competitor of Gaussian, Inc. and that
 it will not use this program in any manner prohibited above.
 ---------------------------------------------------------------
  

 Cite this work as:
 Gaussian 16, Revision A.03,
 M. J. Frisch, G. W. Trucks, H. B. Schlegel, G. E. Scuseria, 
 M. A. Robb, J. R. Cheeseman, G. Scalmani, V. Barone, 
 G. A. Petersson, H. Nakatsuji, X. Li, M. Caricato, A. V. Marenich, 
 J. Bloino, B. G. Janesko, R. Gomperts, B. Mennucci, H. P. Hratchian, 
 J. V. Ortiz, A. F. Izmaylov, J. L. Sonnenberg, D. Williams-Young, 
 F. Ding, F. Lipparini, F. Egidi, J. Goings, B. Peng, A. Petrone, 
 T. Henderson, D. Ranasinghe, V. G. Zakrzewski, J. Gao, N. Rega, 
 G. Zheng, W. Liang, M. Hada, M. Ehara, K. Toyota, R. Fukuda, 
 J. Hasegawa, M. Ishida, T. Nakajima, Y. Honda, O. Kitao, H. Nakai, 
 T. Vreven, K. Throssell, J. A. Montgomery, Jr., J. E. Peralta, 
 F. Ogliaro, M. J. Bearpark, J. J. Heyd, E. N. Brothers, K. N. Kudin, 
 V. N. Staroverov, T. A. Keith, R. Kobayashi, J. Normand, 
 K. Raghavachari, A. P. Rendell, J. C. Burant, S. S. Iyengar, 
 J. Tomasi, M. Cossi, J. M. Millam, M. Klene, C. Adamo, R. Cammi, 
 J. W. Ochterski, R. L. Martin, K. Morokuma, O. Farkas, 
 J. B. Foresman, and D. J. Fox, Gaussian, Inc., Wallingford CT, 2016.
 
 ******************************************
 Gaussian 16:  ES64L-G16RevA.03 25-Dec-2016
                31-Jan-2025 
 ******************************************
 %chk=C6H6.chk
 ---------------------------------------
 #P CCSD/def2tzvp nosymm Density=Current
 ---------------------------------------
 1/30=1,38=1,172=1/1;
 2/12=2,15=1,17=6,18=5,40=1/2;
 3/5=44,7=101,11=9,25=1,30=1,71=1/1,2,3;
 4//1;
 5/5=2,38=5/2;
 8/6=4,9=120000,10=1/1,4;
 9/5=7,15=1/13;
 11/28=-8,31=1,32=3,42=3/11;
 10/5=6,13=10,31=1/2;
 6/7=2,8=2,9=2,10=2,22=-1/1;
 99/5=1,9=1/99;
 Leave Link    1 at Fri Jan 31 14:27:25 2025, MaxMem=           0 cpu:               0.0 elap:               0.0
 (Enter /sw/cluster/pub/apps//g16/l101.exe)
 ------------
 Single-Point
 ------------
 Symbolic Z-matrix:
 Charge =  0 Multiplicity = 1
 C                     1.20467   0.69551   0. 
 C                     0.        1.39103   0. 
 C                    -1.20467   0.69551   0. 
 C                    -1.20467  -0.69551   0. 
 C                     0.       -1.39103   0. 
 C                     1.20467  -0.69551   0. 
 H                     2.14254   1.237     0. 
 H                     0.        2.47398   0. 
 H                    -2.14254   1.237     0. 
 H                    -2.14254  -1.237     0. 
 H                     0.       -2.47398   0. 
 H                     2.14254  -1.237     0. 
 
 ITRead=  0  0  0  0  0  0  0  0  0  0  0  0
 MicOpt= -1 -1 -1 -1 -1 -1 -1 -1 -1 -1 -1 -1
 NAtoms=     12 NQM=       12 NQMF=       0 NMMI=      0 NMMIF=      0
                NMic=       0 NMicF=      0.
                    Isotopes and Nuclear Properties:
 (Nuclear quadrupole moments (NQMom) in fm**2, nuclear magnetic moments (NMagM)
  in nuclear magnetons)

  Atom         1           2           3           4           5           6           7           8           9          10
 IAtWgt=          12          12          12          12          12          12           1           1           1           1
 AtmWgt=  12.0000000  12.0000000  12.0000000  12.0000000  12.0000000  12.0000000   1.0078250   1.0078250   1.0078250   1.0078250
 NucSpn=           0           0           0           0           0           0           1           1           1           1
 AtZEff=  -0.0000000  -0.0000000  -0.0000000  -0.0000000  -0.0000000  -0.0000000  -0.0000000  -0.0000000  -0.0000000  -0.0000000
 NQMom=    0.0000000   0.0000000   0.0000000   0.0000000   0.0000000   0.0000000   0.0000000   0.0000000   0.0000000   0.0000000
 NMagM=    0.0000000   0.0000000   0.0000000   0.0000000   0.0000000   0.0000000   2.7928460   2.7928460   2.7928460   2.7928460
 AtZNuc=   6.0000000   6.0000000   6.0000000   6.0000000   6.0000000   6.0000000   1.0000000   1.0000000   1.0000000   1.0000000

  Atom        11          12
 IAtWgt=           1           1
 AtmWgt=   1.0078250   1.0078250
 NucSpn=           1           1
 AtZEff=  -0.0000000  -0.0000000
 NQMom=    0.0000000   0.0000000
 NMagM=    2.7928460   2.7928460
 AtZNuc=   1.0000000   1.0000000
 Leave Link  101 at Fri Jan 31 14:27:25 2025, MaxMem=   104857600 cpu:               0.0 elap:               0.0
 (Enter /sw/cluster/pub/apps//g16/l202.exe)
                          Input orientation:                          
 ---------------------------------------------------------------------
 Center     Atomic      Atomic             Coordinates (Angstroms)
 Number     Number       Type             X           Y           Z
 ---------------------------------------------------------------------
      1          6           0        1.204672    0.695514    0.000000
      2          6           0        0.000000    1.391026    0.000000
      3          6           0       -1.204672    0.695514    0.000000
      4          6           0       -1.204672   -0.695514    0.000000
      5          6           0        0.000000   -1.391026    0.000000
      6          6           0        1.204672   -0.695514    0.000000
      7          1           0        2.142538    1.237000    0.000000
      8          1           0        0.000000    2.473984    0.000000
      9          1           0       -2.142538    1.237000    0.000000
     10          1           0       -2.142538   -1.237000    0.000000
     11          1           0        0.000000   -2.473984    0.000000
     12          1           0        2.142538   -1.237000    0.000000
 ---------------------------------------------------------------------
                    Distance matrix (angstroms):
                    1          2          3          4          5
     1  C    0.000000
     2  C    1.391033   0.000000
     3  C    2.409344   1.391033   0.000000
     4  C    2.782066   2.409333   1.391028   0.000000
     5  C    2.409333   2.782053   2.409333   1.391033   0.000000
     6  C    1.391028   2.409333   2.782066   2.409344   1.391033
     7  H    1.082959   2.148067   3.390725   3.865025   3.390721
     8  H    2.148067   1.082958   2.148067   3.390716   3.865011
     9  H    3.390725   2.148067   1.082959   2.148069   3.390721
    10  H    3.865025   3.390721   2.148069   1.082959   2.148067
    11  H    3.390716   3.865011   3.390716   2.148067   1.082958
    12  H    2.148069   3.390721   3.865025   3.390725   2.148067
                    6          7          8          9         10
     6  C    0.000000
     7  H    2.148069   0.000000
     8  H    3.390716   2.473985   0.000000
     9  H    3.865025   4.285075   2.473985   0.000000
    10  H    3.390725   4.947984   4.285075   2.473999   0.000000
    11  H    2.148067   4.285075   4.947969   4.285075   2.473985
    12  H    1.082959   2.473999   4.285075   4.947984   4.285075
                   11         12
    11  H    0.000000
    12  H    2.473985   0.000000
 Symmetry turned off by external request.
 Stoichiometry    C6H6
 Framework group  D2H[C2"(HC.CH),SG(C4H4)]
 Deg. of freedom     6
 Full point group                 D2H     NOp   8
 Rotational constants (GHZ):           5.7322640           5.7322091           2.8661183
 Leave Link  202 at Fri Jan 31 14:27:25 2025, MaxMem=   104857600 cpu:               0.0 elap:               0.0
 (Enter /sw/cluster/pub/apps//g16/l301.exe)
 Standard basis: def2TZVP (5D, 7F)
 Ernie: Thresh=  0.10000D-02 Tol=  0.10000D-05 Strict=F.
   222 basis functions,   354 primitive gaussians,   252 cartesian basis functions
    21 alpha electrons       21 beta electrons
       nuclear repulsion energy       203.9941871599 Hartrees.
 IExCor=    0 DFT=F Ex=HF Corr=None ExCW=0 ScaHFX=  1.000000
 ScaDFX=  1.000000  1.000000  1.000000  1.000000 ScalE2=  1.000000  1.000000
 IRadAn=      5 IRanWt=     -1 IRanGd=            0 ICorTp=0 IEmpDi=  4
 NAtoms=   12 NActive=   12 NUniq=   12 SFac= 1.00D+00 NAtFMM=   60 NAOKFM=F Big=F
 Integral buffers will be    131072 words long.
 Raffenetti 1 integral format.
 Two-electron integral symmetry is turned off.
 Leave Link  301 at Fri Jan 31 14:27:25 2025, MaxMem=   104857600 cpu:               0.0 elap:               0.0
 (Enter /sw/cluster/pub/apps//g16/l302.exe)
 NPDir=0 NMtPBC=     1 NCelOv=     1 NCel=       1 NClECP=     1 NCelD=      1
         NCelK=      1 NCelE2=     1 NClLst=     1 CellRange=     0.0.
 One-electron integrals computed using PRISM.
   1 Symmetry operations used in ECPInt.
 ECPInt:  NShTT=    4095 NPrTT=   12396 LenC2=    4075 LenP2D=   10419.
 LDataN:  DoStor=T MaxTD1= 6 Len=  172
 NBasis=   222 RedAO= T EigKep=  1.00D-05  NBF=   222
 NBsUse=   222 1.00D-06 EigRej= -1.00D+00 NBFU=   222
 Leave Link  302 at Fri Jan 31 14:27:25 2025, MaxMem=   104857600 cpu:               0.1 elap:               0.1
 (Enter /sw/cluster/pub/apps//g16/l303.exe)
 DipDrv:  MaxL=1.
 Leave Link  303 at Fri Jan 31 14:27:25 2025, MaxMem=   104857600 cpu:               0.0 elap:               0.0
 (Enter /sw/cluster/pub/apps//g16/l401.exe)
 ExpMin= 9.52D-02 ExpMax= 1.36D+04 ExpMxC= 4.63D+02 IAcc=3 IRadAn=         5 AccDes= 0.00D+00
 Harris functional with IExCor=  205 and IRadAn=       5 diagonalized for initial guess.
 HarFok:  IExCor=  205 AccDes= 0.00D+00 IRadAn=         5 IDoV= 1 UseB2=F ITyADJ=14
 ICtDFT=  3500011 ScaDFX=  1.000000  1.000000  1.000000  1.000000
 FoFCou: FMM=F IPFlag=           0 FMFlag=      100000 FMFlg1=           0
         NFxFlg=           0 DoJE=T BraDBF=F KetDBF=T FulRan=T
         wScrn=  0.000000 ICntrl=       500 IOpCl=  0 I1Cent=   200000004 NGrid=           0
         NMat0=    1 NMatS0=      1 NMatT0=    0 NMatD0=    1 NMtDS0=    0 NMtDT0=    0
 Symmetry not used in FoFCou.
 Harris En= -231.185345001330    
 JPrj=0 DoOrth=F DoCkMO=F.
 Leave Link  401 at Fri Jan 31 14:27:26 2025, MaxMem=   104857600 cpu:               0.9 elap:               0.9
 (Enter /sw/cluster/pub/apps//g16/l502.exe)
 Two-electron integral symmetry not used.
 Closed shell SCF:
 Using DIIS extrapolation, IDIIS=  1040.
 NGot=   104857600 LenX=   104727300 LenY=   104663355
 Requested convergence on RMS density matrix=1.00D-08 within 128 cycles.
 Requested convergence on MAX density matrix=1.00D-06.
 Requested convergence on             energy=1.00D-06.
 No special actions if energy rises.
 Fock matrices will be formed incrementally for  20 cycles.
 Integral accuracy reduced to 1.0D-05 until final iterations.

 Cycle   1  Pass 0  IDiag  1:
 FoFJK:  IHMeth= 1 ICntrl=       0 DoSepK=F KAlg= 0 I1Cent=           0 FoldK=F
 IRaf= 980000000 NMat=       1 IRICut=       1 DoRegI=T DoRafI=F ISym2E= 0 IDoP0=0 IntGTp=1.
 FoFCou: FMM=F IPFlag=           0 FMFlag=      100000 FMFlg1=           0
         NFxFlg=           0 DoJE=F BraDBF=F KetDBF=F FulRan=T
         wScrn=  0.000000 ICntrl=         0 IOpCl=  0 I1Cent=           0 NGrid=           0
         NMat0=    1 NMatS0=      1 NMatT0=    0 NMatD0=    1 NMtDS0=    0 NMtDT0=    0
 Symmetry not used in FoFCou.
 E= -230.477331132184    
 DIIS: error= 4.95D-02 at cycle   1 NSaved=   1.
 NSaved= 1 IEnMin= 1 EnMin= -230.477331132184     IErMin= 1 ErrMin= 4.95D-02
 ErrMax= 4.95D-02  0.00D+00 EMaxC= 1.00D-01 BMatC= 5.12D-01 BMatP= 5.12D-01
 IDIUse=3 WtCom= 5.05D-01 WtEn= 4.95D-01
 Coeff-Com:  0.100D+01
 Coeff-En:   0.100D+01
 Coeff:      0.100D+01
 Gap=     0.480 Goal=   None    Shift=    0.000
 GapD=    0.480 DampG=2.000 DampE=0.500 DampFc=1.0000 IDamp=-1.
 RMSDP=2.75D-03 MaxDP=5.30D-02              OVMax= 1.55D-01

 Cycle   2  Pass 0  IDiag  1:
 RMSU=  2.57D-03    CP:  9.02D-01
 E= -230.733248640759     Delta-E=       -0.255917508575 Rises=F Damp=F
 DIIS: error= 3.20D-02 at cycle   2 NSaved=   2.
 NSaved= 2 IEnMin= 2 EnMin= -230.733248640759     IErMin= 2 ErrMin= 3.20D-02
 ErrMax= 3.20D-02  0.00D+00 EMaxC= 1.00D-01 BMatC= 5.26D-02 BMatP= 5.12D-01
 IDIUse=3 WtCom= 6.80D-01 WtEn= 3.20D-01
 Coeff-Com:  0.164D+00 0.836D+00
 Coeff-En:   0.000D+00 0.100D+01
 Coeff:      0.112D+00 0.888D+00
 Gap=     0.531 Goal=   None    Shift=    0.000
 RMSDP=9.28D-04 MaxDP=1.60D-02 DE=-2.56D-01 OVMax= 5.89D-02

 Cycle   3  Pass 0  IDiag  1:
 RMSU=  7.81D-04    CP:  9.17D-01  8.13D-01
 E= -230.777877779682     Delta-E=       -0.044629138923 Rises=F Damp=F
 DIIS: error= 1.16D-02 at cycle   3 NSaved=   3.
 NSaved= 3 IEnMin= 3 EnMin= -230.777877779682     IErMin= 3 ErrMin= 1.16D-02
 ErrMax= 1.16D-02  0.00D+00 EMaxC= 1.00D-01 BMatC= 6.74D-03 BMatP= 5.26D-02
 IDIUse=3 WtCom= 8.84D-01 WtEn= 1.16D-01
 Coeff-Com: -0.199D-01 0.237D+00 0.783D+00
 Coeff-En:   0.000D+00 0.000D+00 0.100D+01
 Coeff:     -0.176D-01 0.210D+00 0.808D+00
 Gap=     0.461 Goal=   None    Shift=    0.000
 RMSDP=2.49D-04 MaxDP=4.03D-03 DE=-4.46D-02 OVMax= 1.76D-02

 Cycle   4  Pass 0  IDiag  1:
 RMSU=  1.61D-04    CP:  9.10D-01  8.80D-01  9.72D-01
 E= -230.784348212458     Delta-E=       -0.006470432776 Rises=F Damp=F
 DIIS: error= 1.74D-03 at cycle   4 NSaved=   4.
 NSaved= 4 IEnMin= 4 EnMin= -230.784348212458     IErMin= 4 ErrMin= 1.74D-03
 ErrMax= 1.74D-03  0.00D+00 EMaxC= 1.00D-01 BMatC= 6.11D-05 BMatP= 6.74D-03
 IDIUse=3 WtCom= 9.83D-01 WtEn= 1.74D-02
 Coeff-Com: -0.238D-02-0.136D-01 0.410D-01 0.975D+00
 Coeff-En:   0.000D+00 0.000D+00 0.000D+00 0.100D+01
 Coeff:     -0.234D-02-0.134D-01 0.403D-01 0.975D+00
 Gap=     0.461 Goal=   None    Shift=    0.000
 RMSDP=7.21D-05 MaxDP=9.60D-04 DE=-6.47D-03 OVMax= 2.46D-03

 Cycle   5  Pass 0  IDiag  1:
 RMSU=  4.51D-05    CP:  9.09D-01  8.85D-01  1.04D+00  1.13D+00
 E= -230.784426760247     Delta-E=       -0.000078547789 Rises=F Damp=F
 DIIS: error= 2.68D-04 at cycle   5 NSaved=   5.
 NSaved= 5 IEnMin= 5 EnMin= -230.784426760247     IErMin= 5 ErrMin= 2.68D-04
 ErrMax= 2.68D-04  0.00D+00 EMaxC= 1.00D-01 BMatC= 2.33D-06 BMatP= 6.11D-05
 IDIUse=3 WtCom= 9.97D-01 WtEn= 2.68D-03
 Coeff-Com:  0.116D-02-0.936D-02-0.449D-01-0.168D+00 0.122D+01
 Coeff-En:   0.000D+00 0.000D+00 0.000D+00 0.000D+00 0.100D+01
 Coeff:      0.116D-02-0.933D-02-0.448D-01-0.168D+00 0.122D+01
 Gap=     0.461 Goal=   None    Shift=    0.000
 RMSDP=2.41D-05 MaxDP=3.72D-04 DE=-7.85D-05 OVMax= 7.37D-04

 Cycle   6  Pass 0  IDiag  1:
 RMSU=  6.52D-06    CP:  9.09D-01  8.87D-01  1.05D+00  1.22D+00  1.24D+00
 E= -230.784431472742     Delta-E=       -0.000004712495 Rises=F Damp=F
 DIIS: error= 2.70D-05 at cycle   6 NSaved=   6.
 NSaved= 6 IEnMin= 6 EnMin= -230.784431472742     IErMin= 6 ErrMin= 2.70D-05
 ErrMax= 2.70D-05  0.00D+00 EMaxC= 1.00D-01 BMatC= 1.77D-08 BMatP= 2.33D-06
 IDIUse=1 WtCom= 1.00D+00 WtEn= 0.00D+00
 Coeff-Com: -0.108D-03 0.131D-02 0.602D-02 0.135D-01-0.190D+00 0.117D+01
 Coeff:     -0.108D-03 0.131D-02 0.602D-02 0.135D-01-0.190D+00 0.117D+01
 Gap=     0.461 Goal=   None    Shift=    0.000
 RMSDP=2.32D-06 MaxDP=4.29D-05 DE=-4.71D-06 OVMax= 7.12D-05

 Initial convergence to 1.0D-05 achieved.  Increase integral accuracy.
 Cycle   7  Pass 1  IDiag  1:
 E= -230.784432274535     Delta-E=       -0.000000801793 Rises=F Damp=F
 DIIS: error= 4.59D-05 at cycle   1 NSaved=   1.
 NSaved= 1 IEnMin= 1 EnMin= -230.784432274535     IErMin= 1 ErrMin= 4.59D-05
 ErrMax= 4.59D-05  0.00D+00 EMaxC= 1.00D-01 BMatC= 5.65D-08 BMatP= 5.65D-08
 IDIUse=1 WtCom= 1.00D+00 WtEn= 0.00D+00
 Coeff-Com:  0.100D+01
 Coeff:      0.100D+01
 Gap=     0.461 Goal=   None    Shift=    0.000
 RMSDP=2.32D-06 MaxDP=4.29D-05 DE=-8.02D-07 OVMax= 5.39D-05

 Cycle   8  Pass 1  IDiag  1:
 RMSU=  6.43D-05    CP:  1.00D+00
 E= -230.784432294782     Delta-E=       -0.000000020246 Rises=F Damp=F
 DIIS: error= 3.37D-06 at cycle   2 NSaved=   2.
 NSaved= 2 IEnMin= 2 EnMin= -230.784432294782     IErMin= 2 ErrMin= 3.37D-06
 ErrMax= 3.37D-06  0.00D+00 EMaxC= 1.00D-01 BMatC= 1.30D-10 BMatP= 5.65D-08
 IDIUse=1 WtCom= 1.00D+00 WtEn= 0.00D+00
 Coeff-Com: -0.282D-01 0.103D+01
 Coeff:     -0.282D-01 0.103D+01
 Gap=     0.461 Goal=   None    Shift=    0.000
 RMSDP=6.08D-06 MaxDP=7.18D-05 DE=-2.02D-08 OVMax= 5.59D-06

 Cycle   9  Pass 1  IDiag  1:
 RMSU=  5.60D-07    CP:  1.00D+00  1.09D+00
 E= -230.784432294997     Delta-E=       -0.000000000215 Rises=F Damp=F
 DIIS: error= 2.48D-07 at cycle   3 NSaved=   3.
 NSaved= 3 IEnMin= 3 EnMin= -230.784432294997     IErMin= 3 ErrMin= 2.48D-07
 ErrMax= 2.48D-07  0.00D+00 EMaxC= 1.00D-01 BMatC= 6.84D-12 BMatP= 1.30D-10
 IDIUse=1 WtCom= 1.00D+00 WtEn= 0.00D+00
 Coeff-Com:  0.207D-02-0.125D+00 0.112D+01
 Coeff:      0.207D-02-0.125D+00 0.112D+01
 Gap=     0.461 Goal=   None    Shift=    0.000
 RMSDP=5.13D-07 MaxDP=6.15D-06 DE=-2.15D-10 OVMax= 1.28D-06

 Cycle  10  Pass 1  IDiag  1:
 RMSU=  3.16D-08    CP:  1.00D+00  1.10D+00  1.13D+00
 E= -230.784432295014     Delta-E=       -0.000000000017 Rises=F Damp=F
 DIIS: error= 1.36D-07 at cycle   4 NSaved=   4.
 NSaved= 4 IEnMin= 4 EnMin= -230.784432295014     IErMin= 4 ErrMin= 1.36D-07
 ErrMax= 1.36D-07  0.00D+00 EMaxC= 1.00D-01 BMatC= 1.07D-12 BMatP= 6.84D-12
 IDIUse=1 WtCom= 1.00D+00 WtEn= 0.00D+00
 Coeff-Com:  0.205D-02-0.848D-01 0.204D+00 0.878D+00
 Coeff:      0.205D-02-0.848D-01 0.204D+00 0.878D+00
 Gap=     0.461 Goal=   None    Shift=    0.000
 RMSDP=2.81D-08 MaxDP=3.44D-07 DE=-1.74D-11 OVMax= 4.88D-07

 Cycle  11  Pass 1  IDiag  1:
 RMSU=  4.71D-09    CP:  1.00D+00  1.10D+00  1.14D+00  1.22D+00
 E= -230.784432295015     Delta-E=       -0.000000000001 Rises=F Damp=F
 DIIS: error= 3.39D-08 at cycle   5 NSaved=   5.
 NSaved= 5 IEnMin= 5 EnMin= -230.784432295015     IErMin= 5 ErrMin= 3.39D-08
 ErrMax= 3.39D-08  0.00D+00 EMaxC= 1.00D-01 BMatC= 7.75D-14 BMatP= 1.07D-12
 IDIUse=1 WtCom= 1.00D+00 WtEn= 0.00D+00
 Coeff-Com: -0.368D-03 0.206D-01-0.148D+00-0.349D-01 0.116D+01
 Coeff:     -0.368D-03 0.206D-01-0.148D+00-0.349D-01 0.116D+01
 Gap=     0.461 Goal=   None    Shift=    0.000
 RMSDP=3.11D-08 MaxDP=3.98D-07 DE=-1.14D-12 OVMax= 1.45D-07

 Cycle  12  Pass 1  IDiag  1:
 RMSU=  2.00D-09    CP:  1.00D+00  1.10D+00  1.14D+00  1.28D+00  1.38D+00
 E= -230.784432295017     Delta-E=       -0.000000000001 Rises=F Damp=F
 DIIS: error= 3.39D-09 at cycle   6 NSaved=   6.
 NSaved= 6 IEnMin= 6 EnMin= -230.784432295017     IErMin= 6 ErrMin= 3.39D-09
 ErrMax= 3.39D-09  0.00D+00 EMaxC= 1.00D-01 BMatC= 5.20D-16 BMatP= 7.75D-14
 IDIUse=1 WtCom= 1.00D+00 WtEn= 0.00D+00
 Coeff-Com:  0.444D-04-0.286D-02 0.246D-01 0.359D-02-0.233D+00 0.121D+01
 Coeff:      0.444D-04-0.286D-02 0.246D-01 0.359D-02-0.233D+00 0.121D+01
 Gap=     0.461 Goal=   None    Shift=    0.000
 RMSDP=1.85D-09 MaxDP=2.33D-08 DE=-1.19D-12 OVMax= 1.17D-08

 SCF Done:  E(RHF) =  -230.784432295     A.U. after   12 cycles
            NFock= 12  Conv=0.18D-08     -V/T= 2.0010
 KE= 2.305466165854D+02 PE=-9.450467712179D+02 EE= 2.797215351776D+02
 Leave Link  502 at Fri Jan 31 14:28:00 2025, MaxMem=   104857600 cpu:              34.7 elap:              34.7
 (Enter /sw/cluster/pub/apps//g16/l801.exe)
 Windowed orbitals will be sorted by symmetry type.
 ExpMin= 9.52D-02 ExpMax= 1.36D+04 ExpMxC= 4.63D+02 IAcc=3 IRadAn=         5 AccDes= 0.00D+00
 HarFok:  IExCor=  205 AccDes= 0.00D+00 IRadAn=         5 IDoV=-2 UseB2=F ITyADJ=14
 ICtDFT= 12500011 ScaDFX=  1.000000  1.000000  1.000000  1.000000
 Largest valence mixing into a core orbital is  1.91D-04
 Largest core mixing into a valence orbital is  4.33D-05
 Range of M.O.s used for correlation:     7   222
 NBasis=   222 NAE=    21 NBE=    21 NFC=     6 NFV=     0
 NROrb=    216 NOA=    15 NOB=    15 NVA=   201 NVB=   201

 **** Warning!!: The largest alpha MO coefficient is  0.62978441D+02

 Leave Link  801 at Fri Jan 31 14:28:01 2025, MaxMem=   104857600 cpu:               0.2 elap:               0.2
 (Enter /sw/cluster/pub/apps//g16/l804.exe)
 Closed-shell transformation, MDV=   104857600 ITran=4 ISComp=1.
 Unit  1 TFree=       2697421 TCopy=        945594.
 Semi-Direct transformation.
 ModeAB=           2 MOrb=            15 LenV=     103496721
 LASXX=     72124365 LTotXX=    72124365 LenRXX=    72124365
 LTotAB=    73110060 MaxLAS=   103284720 LenRXY=   103284720
 NonZer=   144248730 LenScr=   217222144 LnRSAI=           0
 LnScr1=           0 LExtra=           0 Total=    392631229
 MaxDsk=          -1 SrtSym=           F ITran=            4
 DoSDTr:  NPSUse=  1
 JobTyp=0 Pass  1:  I=   1 to  15.
 Complete sort for first half transformation.
 First half transformation complete.
 Begin second half transformation for I=  10.
 Begin second half transformation for I=  10.
 Complete sort for second half transformation.
 Second half transformation complete.
 Spin components of T(2) and E(2):
     alpha-alpha T2 =       0.4495395688D-01 E2=     -0.1178001330D+00
     alpha-beta  T2 =       0.2375432886D+00 E2=     -0.6955154788D+00
     beta-beta   T2 =       0.4495395688D-01 E2=     -0.1178001330D+00
 ANorm=    0.1152150686D+01
 E2 =    -0.9311157448D+00 EUMP2 =    -0.23171554803980D+03
 Leave Link  804 at Fri Jan 31 14:28:15 2025, MaxMem=   104857600 cpu:              14.4 elap:              14.4
 (Enter /sw/cluster/pub/apps//g16/l913.exe)
 CIDS:  MDV=   104857600.
 Frozen-core window:  NFC=   6 NFV=   0.
 IFCWin=0 IBDFC=1 NFBD=     0     0 NFCmp=     0     0 NFFFC=     0     0
 Using DD3R+UMP44R for 1st iteration.
 Using DD4RQ for 2nd and later iterations.
 Two-electron integral symmetry not used.
 CIDS: In Core Option IDoMem=           1.
 Coupled Cluster theory with single and double substitutions
 ===========================================================
 Iterations=  50 Convergence= 0.100D-07
 Produce multiple copies of IABC intergrals
 Iteration Nr.   1
 **********************
 DD1Dir will call FoFJK   1 times, MxPair=       240
 NAB=   120 NAA=     0 NBB=     0 NumPrc=  1.
 FoFJK:  IHMeth= 1 ICntrl=     200 DoSepK=F KAlg= 0 I1Cent=           0 FoldK=F
 IRaf= 980000000 NMat=     240 IRICut=     300 DoRegI=T DoRafI=T ISym2E= 0 IDoP0=3 IntGTp=3.
 FoFCou: FMM=F IPFlag=           0 FMFlag=      100000 FMFlg1=           0
         NFxFlg=           0 DoJE=F BraDBF=F KetDBF=F FulRan=T
         wScrn=  0.000000 ICntrl=       200 IOpCl=  0 I1Cent=           0 NGrid=           0
         NMat0=  240 NMatS0=      0 NMatT0=  120 NMatD0=  240 NMtDS0=    0 NMtDT0=    0
 Symmetry not used in FoFCou.
 Raff kept on since  98.10% of shell-pairs survive, threshold=   0.20 IRatSp=98.
 MP4(R+Q)=  0.30625894D-01
 Maximum subspace dimension=  5
 A-vector RMS=  1.8646304D-03 Max=  1.7278467D-02 conv= 1.00D-06.
 RLE energy=       -0.9281173601
 E3=       -0.27900480D-01        EUMP3=      -0.23174344852D+03
 E4(DQ)=    0.81685235D-02        UMP4(DQ)=   -0.23173528000D+03
 E4(SDQ)=   0.61024612D-03        UMP4(SDQ)=  -0.23174283827D+03
 VARIATIONAL ENERGIES WITH THE FIRST-ORDER WAVEFUNCTION:
 DE(Corr)= -0.92810776     E(Corr)=     -231.71254005    
 NORM(A)=   0.11500929D+01
 Iteration Nr.   2
 **********************
 DD1Dir will call FoFJK   1 times, MxPair=       240
 NAB=   120 NAA=     0 NBB=     0 NumPrc=  1.
 A-vector RMS=  2.3335551D-04 Max=  9.6701382D-03 conv= 1.00D-06.
 RLE energy=       -0.9573665219
 DE(Corr)= -0.95561742     E(CORR)=     -231.74004972     Delta=-2.75D-02
 NORM(A)=   0.11626704D+01
 Iteration Nr.   3
 **********************
 DD1Dir will call FoFJK   1 times, MxPair=       240
 NAB=   120 NAA=     0 NBB=     0 NumPrc=  1.
 A-vector RMS=  1.8927586D-04 Max=  2.6776720D-03 conv= 1.00D-06.
 RLE energy=       -0.9581118858
 DE(Corr)= -0.95626759     E(CORR)=     -231.74069989     Delta=-6.50D-04
 NORM(A)=   0.11647283D+01
 Iteration Nr.   4
 **********************
 DD1Dir will call FoFJK   1 times, MxPair=       240
 NAB=   120 NAA=     0 NBB=     0 NumPrc=  1.
 A-vector RMS=  3.7316625D-05 Max=  1.4302196D-03 conv= 1.00D-06.
 RLE energy=       -0.9585170737
 DE(Corr)= -0.95836939     E(CORR)=     -231.74280168     Delta=-2.10D-03
 NORM(A)=   0.11656050D+01
 Iteration Nr.   5
 **********************
 DD1Dir will call FoFJK   1 times, MxPair=       240
 NAB=   120 NAA=     0 NBB=     0 NumPrc=  1.
 A-vector RMS=  1.2744183D-05 Max=  3.1248153D-04 conv= 1.00D-06.
 RLE energy=       -0.9586499680
 DE(Corr)= -0.95858854     E(CORR)=     -231.74302084     Delta=-2.19D-04
 NORM(A)=   0.11658142D+01
 Iteration Nr.   6
 **********************
 DD1Dir will call FoFJK   1 times, MxPair=       240
 NAB=   120 NAA=     0 NBB=     0 NumPrc=  1.
 A-vector RMS=  3.1327901D-06 Max=  7.2561977D-05 conv= 1.00D-06.
 RLE energy=       -0.9586060023
 DE(Corr)= -0.95861654     E(CORR)=     -231.74304883     Delta=-2.80D-05
 NORM(A)=   0.11658146D+01
 Iteration Nr.   7
 **********************
 DD1Dir will call FoFJK   1 times, MxPair=       240
 NAB=   120 NAA=     0 NBB=     0 NumPrc=  1.
 A-vector RMS=  8.9363805D-07 Max=  1.8949831D-05 conv= 1.00D-06.
 RLE energy=       -0.9586158178
 DE(Corr)= -0.95861894     E(CORR)=     -231.74305124     Delta=-2.40D-06
 NORM(A)=   0.11658201D+01
 Iteration Nr.   8
 **********************
 DD1Dir will call FoFJK   1 times, MxPair=       240
 NAB=   120 NAA=     0 NBB=     0 NumPrc=  1.
 A-vector RMS=  2.6006991D-07 Max=  3.1650708D-06 conv= 1.00D-06.
 RLE energy=       -0.9586166003
 DE(Corr)= -0.95861693     E(CORR)=     -231.74304923     Delta= 2.01D-06
 NORM(A)=   0.11658208D+01
 Iteration Nr.   9
 **********************
 DD1Dir will call FoFJK   1 times, MxPair=       240
 NAB=   120 NAA=     0 NBB=     0 NumPrc=  1.
 A-vector RMS=  1.0456763D-07 Max=  1.5471779D-06 conv= 1.00D-06.
 RLE energy=       -0.9586177810
 DE(Corr)= -0.95861791     E(CORR)=     -231.74305020     Delta=-9.74D-07
 NORM(A)=   0.11658214D+01
 Iteration Nr.  10
 **********************
 DD1Dir will call FoFJK   1 times, MxPair=       240
 NAB=   120 NAA=     0 NBB=     0 NumPrc=  1.
 A-vector RMS=  3.4730836D-08 Max=  5.2229036D-07 conv= 1.00D-06.
 RLE energy=       -0.9586180325
 DE(Corr)= -0.95861796     E(CORR)=     -231.74305025     Delta=-4.84D-08
 NORM(A)=   0.11658217D+01
 Iteration Nr.  11
 **********************
 DD1Dir will call FoFJK   1 times, MxPair=       240
 NAB=   120 NAA=     0 NBB=     0 NumPrc=  1.
 A-vector RMS=  7.9776641D-09 Max=  2.7283876D-07 conv= 1.00D-06.
 RLE energy=       -0.9586181521
 DE(Corr)= -0.95861812     E(CORR)=     -231.74305042     Delta=-1.66D-07
 NORM(A)=   0.11658219D+01
 Iteration Nr.  12
 **********************
 DD1Dir will call FoFJK   1 times, MxPair=       240
 NAB=   120 NAA=     0 NBB=     0 NumPrc=  1.
 A-vector RMS=  4.0594226D-09 Max=  1.1857461D-07 conv= 1.00D-06.
 RLE energy=       -0.9586181995
 DE(Corr)= -0.95861818     E(CORR)=     -231.74305047     Delta=-5.47D-08
 NORM(A)=   0.11658219D+01
 Iteration Nr.  13
 **********************
 DD1Dir will call FoFJK   1 times, MxPair=       240
 NAB=   120 NAA=     0 NBB=     0 NumPrc=  1.
 A-vector RMS=  1.3980645D-09 Max=  5.3055850D-08 conv= 1.00D-06.
 RLE energy=       -0.9586182123
 DE(Corr)= -0.95861820     E(CORR)=     -231.74305050     Delta=-2.76D-08
 NORM(A)=   0.11658220D+01
 Iteration Nr.  14
 **********************
 DD1Dir will call FoFJK   1 times, MxPair=       240
 NAB=   120 NAA=     0 NBB=     0 NumPrc=  1.
 A-vector RMS=  5.1402231D-10 Max=  1.7009947D-08 conv= 1.00D-06.
 RLE energy=       -0.9586182146
 DE(Corr)= -0.95861821     E(CORR)=     -231.74305051     Delta=-9.14D-09
 NORM(A)=   0.11658220D+01
 CI/CC converged in   14 iterations to DelEn=-9.14D-09 Conv= 1.00D-08 ErrA1= 5.14D-10 Conv= 1.00D-06
 Wavefunction amplitudes converged. E(Corr)=     -231.74305051    
 Largest amplitude= 7.72D-02

 Z-amplitude iterations

 Iteration Nr.   1
 **********************
 DD1Dir will call FoFJK   1 times, MxPair=       240
 NAB=   120 NAA=     0 NBB=     0 NumPrc=  1.
 A-vector RMS=  4.5376526D-04 Max=  4.2630175D-03 conv= 1.00D-06.
 RLE energy=       -0.9587086621
 DE(Z)= -0.92288767     E(Z)=     -231.70731997     Delta= 3.57D-02
 NORM(A)=   0.11658557D+01
 Iteration Nr.   2
 **********************
 DD1Dir will call FoFJK   1 times, MxPair=       240
 NAB=   120 NAA=     0 NBB=     0 NumPrc=  1.
 A-vector RMS=  4.5486396D-04 Max=  4.2740955D-03 conv= 1.00D-06.
 RLE energy=       -0.9587004639
 DE(Z)= -0.92288978     E(Z)=     -231.70732207     Delta=-2.11D-06
 NORM(A)=   0.11658527D+01
 Iteration Nr.   3
 **********************
 DD1Dir will call FoFJK   1 times, MxPair=       240
 NAB=   120 NAA=     0 NBB=     0 NumPrc=  1.
 A-vector RMS=  4.5472988D-04 Max=  4.2725530D-03 conv= 1.00D-06.
 RLE energy=       -0.9587228731
 DE(Z)= -0.92288929     E(Z)=     -231.70732158     Delta= 4.91D-07
 NORM(A)=   0.11658613D+01
 Iteration Nr.   4
 **********************
 DD1Dir will call FoFJK   1 times, MxPair=       240
 NAB=   120 NAA=     0 NBB=     0 NumPrc=  1.
 A-vector RMS=  4.5506979D-04 Max=  4.2752927D-03 conv= 1.00D-06.
 RLE energy=       -0.9583979748
 DE(Z)= -0.92288989     E(Z)=     -231.70732218     Delta=-5.98D-07
 NORM(A)=   0.11657393D+01
 Iteration Nr.   5
 **********************
 DD1Dir will call FoFJK   1 times, MxPair=       240
 NAB=   120 NAA=     0 NBB=     0 NumPrc=  1.
 A-vector RMS=  4.5102623D-04 Max=  4.2372117D-03 conv= 1.00D-06.
 RLE energy=       -0.9221226667
 DE(Z)= -0.92288307     E(Z)=     -231.70731537     Delta= 6.81D-06
 NORM(A)=   0.11525810D+01
 Iteration Nr.   6
 **********************
 DD1Dir will call FoFJK   1 times, MxPair=       240
 NAB=   120 NAA=     0 NBB=     0 NumPrc=  1.
 A-vector RMS=  1.3787753D-06 Max=  1.1623849D-05 conv= 1.00D-06.
 RLE energy=       -0.9221240189
 DE(Z)= -0.92212621     E(Z)=     -231.70655850     Delta= 7.57D-04
 NORM(A)=   0.11525813D+01
 Iteration Nr.   7
 **********************
 DD1Dir will call FoFJK   1 times, MxPair=       240
 NAB=   120 NAA=     0 NBB=     0 NumPrc=  1.
 A-vector RMS=  7.5953389D-07 Max=  7.3016467D-06 conv= 1.00D-06.
 RLE energy=       -0.9221286428
 DE(Z)= -0.92212598     E(Z)=     -231.70655827     Delta= 2.30D-07
 NORM(A)=   0.11525820D+01
 Iteration Nr.   8
 **********************
 DD1Dir will call FoFJK   1 times, MxPair=       240
 NAB=   120 NAA=     0 NBB=     0 NumPrc=  1.
 A-vector RMS=  5.9148444D-07 Max=  7.1054329D-06 conv= 1.00D-06.
 RLE energy=       -0.9221240040
 DE(Z)= -0.92212495     E(Z)=     -231.70655725     Delta= 1.03D-06
 NORM(A)=   0.11525819D+01
 Iteration Nr.   9
 **********************
 DD1Dir will call FoFJK   1 times, MxPair=       240
 NAB=   120 NAA=     0 NBB=     0 NumPrc=  1.
 A-vector RMS=  4.0832833D-07 Max=  3.8408179D-06 conv= 1.00D-06.
 RLE energy=       -0.9221261114
 DE(Z)= -0.92212662     E(Z)=     -231.70655891     Delta=-1.67D-06
 NORM(A)=   0.11525825D+01
 Iteration Nr.  10
 **********************
 DD1Dir will call FoFJK   1 times, MxPair=       240
 NAB=   120 NAA=     0 NBB=     0 NumPrc=  1.
 A-vector RMS=  4.3658603D-08 Max=  4.9248363D-07 conv= 1.00D-06.
 RLE energy=       -0.9221260392
 DE(Z)= -0.92212599     E(Z)=     -231.70655829     Delta= 6.26D-07
 NORM(A)=   0.11525828D+01
 Iteration Nr.  11
 **********************
 DD1Dir will call FoFJK   1 times, MxPair=       240
 NAB=   120 NAA=     0 NBB=     0 NumPrc=  1.
 A-vector RMS=  9.1823184D-09 Max=  1.4147659D-07 conv= 1.00D-06.
 RLE energy=       -0.9221260838
 DE(Z)= -0.92212609     E(Z)=     -231.70655838     Delta=-9.33D-08
 NORM(A)=   0.11525829D+01
 Iteration Nr.  12
 **********************
 DD1Dir will call FoFJK   1 times, MxPair=       240
 NAB=   120 NAA=     0 NBB=     0 NumPrc=  1.
 A-vector RMS=  2.5452407D-09 Max=  5.0715289D-08 conv= 1.00D-06.
 RLE energy=       -0.9221260944
 DE(Z)= -0.92212610     E(Z)=     -231.70655839     Delta=-8.78D-09
 NORM(A)=   0.11525829D+01
 CI/CC converged in   12 iterations to DelEn=-8.78D-09 Conv= 1.00D-08 ErrA1= 2.55D-09 Conv= 1.00D-06
 Z-amplitudes converged.
 Discarding MO integrals.
 Leave Link  913 at Fri Jan 31 14:39:25 2025, MaxMem=   104857600 cpu:             668.3 elap:             669.5
 (Enter /sw/cluster/pub/apps//g16/l1111.exe)
 Unit  1 TFree=     175410408 TCopy=      45185156.
 Selected functions:
 Compute CCSD 2PDM.
 IO1PDM=    0 IOW=    0 IO2PDM=    0.
 MDV=     104857600.
 Frozen-core window:  NFC=   6 NFV=   0.
 Leave Link 1111 at Fri Jan 31 14:49:16 2025, MaxMem=   104857600 cpu:             590.6 elap:             591.4
 (Enter /sw/cluster/pub/apps//g16/l1002.exe)
 Minotr:  Closed shell wavefunction.
          Computing CCSD/QCISD derivatives.
          Using Z-Vector for PSCF gradient.
          Skipping F1 and S1 gradient terms here.
          Frozen-core window.
          Direct CPHF calculation.
          Differentiating once with respect to electric field.
                with respect to dipole field.
          Electric field/nuclear overlap derivatives assumed to be zero.
          Requested convergence is 1.0D-10 RMS, and 1.0D-09 maximum.
          NewPWx=F KeepS1=T KeepF1=T KeepIn=T MapXYZ=F SortEE=F KeepMc=T.
 Two-electron integral symmetry not used.
          MDV=     104857600 using IRadAn=       5.
          Solving linear equations separately, MaxMat=     384.
          There are     1 degrees of freedom in the 1st order CPHF.  IDoFFX=0 NUNeed=     1.
 FoFJK:  IHMeth= 1 ICntrl=       0 DoSepK=F KAlg= 0 I1Cent=           0 FoldK=F
 IRaf= 990000000 NMat=       1 IRICut=       1 DoRegI=T DoRafI=F ISym2E= 0 IDoP0=0 IntGTp=1.
 FoFCou: FMM=F IPFlag=           0 FMFlag=      100000 FMFlg1=           0
         NFxFlg=           0 DoJE=F BraDBF=F KetDBF=F FulRan=T
         wScrn=  0.000000 ICntrl=         0 IOpCl=  0 I1Cent=           0 NGrid=           0
         NMat0=    1 NMatS0=      1 NMatT0=    0 NMatD0=    1 NMtDS0=    0 NMtDT0=    0
 Symmetry not used in FoFCou.
 LinEq1:  Iter=  0 NonCon=     1 RMS=2.27D-03 Max=5.90D-02 NDo=     1
 AX will form     1 AO Fock derivatives at one time.
 LinEq1:  Iter=  1 NonCon=     1 RMS=7.44D-04 Max=1.71D-02 NDo=     1
 LinEq1:  Iter=  2 NonCon=     1 RMS=1.74D-04 Max=3.04D-03 NDo=     1
 LinEq1:  Iter=  3 NonCon=     1 RMS=3.47D-05 Max=8.70D-04 NDo=     1
 LinEq1:  Iter=  4 NonCon=     1 RMS=4.27D-06 Max=9.44D-05 NDo=     1
 LinEq1:  Iter=  5 NonCon=     1 RMS=3.98D-07 Max=6.20D-06 NDo=     1
 LinEq1:  Iter=  6 NonCon=     1 RMS=3.25D-08 Max=6.41D-07 NDo=     1
 LinEq1:  Iter=  7 NonCon=     1 RMS=2.73D-09 Max=5.08D-08 NDo=     1
 LinEq1:  Iter=  8 NonCon=     1 RMS=2.35D-10 Max=3.88D-09 NDo=     1
 LinEq1:  Iter=  9 NonCon=     1 RMS=6.62D-11 Max=1.65D-09 NDo=     1
 LinEq1:  Iter= 10 NonCon=     0 RMS=1.30D-11 Max=2.42D-10 NDo=     1
 Linear equations converged to 1.000D-10 1.000D-09 after    10 iterations.
 End of Minotr F.D. properties file   721 does not exist.
 End of Minotr F.D. properties file   722 does not exist.
 End of Minotr F.D. properties file   788 does not exist.
 Leave Link 1002 at Fri Jan 31 14:49:59 2025, MaxMem=   104857600 cpu:              42.2 elap:              42.3
 (Enter /sw/cluster/pub/apps//g16/l601.exe)
 Copying SCF densities to generalized density rwf, IOpCl= 0 IROHF=0.

 **********************************************************************

            Population analysis using the QCI/CC density.

 **********************************************************************

 Alpha  occ. eigenvalues --  -11.23330 -11.23271 -11.23271 -11.23145 -11.23145
 Alpha  occ. eigenvalues --  -11.23084  -1.15066  -1.01427  -1.01427  -0.82329
 Alpha  occ. eigenvalues --   -0.82329  -0.70936  -0.64208  -0.61964  -0.58737
 Alpha  occ. eigenvalues --   -0.58737  -0.50299  -0.49408  -0.49408  -0.33666
 Alpha  occ. eigenvalues --   -0.33666
 Alpha virt. eigenvalues --    0.12438   0.12439   0.15571   0.17889   0.17889
 Alpha virt. eigenvalues --    0.20583   0.20583   0.22022   0.26589   0.31738
 Alpha virt. eigenvalues --    0.33088   0.33332   0.33332   0.33571   0.34857
 Alpha virt. eigenvalues --    0.34857   0.37688   0.37688   0.41696   0.41696
 Alpha virt. eigenvalues --    0.47436   0.47436   0.48552   0.49554   0.49554
 Alpha virt. eigenvalues --    0.54444   0.56537   0.56537   0.57446   0.57681
 Alpha virt. eigenvalues --    0.59007   0.60395   0.60395   0.61733   0.64030
 Alpha virt. eigenvalues --    0.67584   0.67584   0.67848   0.67849   0.82751
 Alpha virt. eigenvalues --    0.82751   0.84455   0.90867   0.91501   0.91501
 Alpha virt. eigenvalues --    0.93483   0.94270   0.94271   1.01375   1.04673
 Alpha virt. eigenvalues --    1.05923   1.05923   1.07572   1.09472   1.20058
 Alpha virt. eigenvalues --    1.20058   1.22779   1.22779   1.27640   1.27640
 Alpha virt. eigenvalues --    1.41106   1.41624   1.41624   1.42958   1.42958
 Alpha virt. eigenvalues --    1.45684   1.45684   1.47591   1.47591   1.54002
 Alpha virt. eigenvalues --    1.61495   1.64905   1.69409   1.69409   1.69991
 Alpha virt. eigenvalues --    1.74934   1.74934   1.79008   1.79008   1.82345
 Alpha virt. eigenvalues --    1.85147   1.94587   1.95350   1.95690   1.95690
 Alpha virt. eigenvalues --    1.97904   1.97904   2.01827   2.01827   2.06315
 Alpha virt. eigenvalues --    2.14393   2.18114   2.18114   2.31826   2.31827
 Alpha virt. eigenvalues --    2.32852   2.37135   2.37136   2.38619   2.47443
 Alpha virt. eigenvalues --    2.47444   2.52768   2.55295   2.55295   2.63320
 Alpha virt. eigenvalues --    2.75259   2.78614   2.78615   2.86089   2.87791
 Alpha virt. eigenvalues --    2.87792   2.88106   2.90495   2.97623   2.97623
 Alpha virt. eigenvalues --    2.98111   2.98111   2.98619   2.99665   2.99665
 Alpha virt. eigenvalues --    3.05161   3.06273   3.06273   3.11559   3.12188
 Alpha virt. eigenvalues --    3.12188   3.15924   3.15924   3.16119   3.16416
 Alpha virt. eigenvalues --    3.16417   3.20950   3.34367   3.39901   3.39901
 Alpha virt. eigenvalues --    3.41617   3.41617   3.46432   3.46433   3.47432
 Alpha virt. eigenvalues --    3.47433   3.52349   3.55419   3.55419   3.57821
 Alpha virt. eigenvalues --    3.59144   3.59144   3.64748   3.69094   3.69937
 Alpha virt. eigenvalues --    3.71711   3.71712   3.77726   3.77727   3.83925
 Alpha virt. eigenvalues --    3.85271   3.87379   3.87379   3.93112   3.96295
 Alpha virt. eigenvalues --    3.96296   4.09614   4.09616   4.10754   4.16954
 Alpha virt. eigenvalues --    4.22694   4.36147   4.36148   4.40810   4.45516
 Alpha virt. eigenvalues --    4.45517   4.48140   4.56466   4.56467   4.57745
 Alpha virt. eigenvalues --    4.57745   4.58716   4.65583   4.65585   4.69405
 Alpha virt. eigenvalues --    4.69406   4.99563   5.00358   5.01849   5.01849
 Alpha virt. eigenvalues --    5.22099   5.22099   5.29236   5.29236   5.61291
 Alpha virt. eigenvalues --    5.61291   5.66417   5.68591   5.81985   5.99115
 Alpha virt. eigenvalues --   22.96620  23.65430  23.65431  23.75816  23.75817
 Alpha virt. eigenvalues --   24.19151
          Condensed to atoms (all electrons):
               1          2          3          4          5          6
     1  C    5.369183   0.202235   0.074068  -0.124843   0.074065   0.202229
     2  C    0.202235   5.369177   0.202235   0.074065  -0.124843   0.074065
     3  C    0.074068   0.202235   5.369183   0.202229   0.074065  -0.124843
     4  C   -0.124843   0.074065   0.202229   5.369183   0.202235   0.074068
     5  C    0.074065  -0.124843   0.074065   0.202235   5.369177   0.202235
     6  C    0.202229   0.074065  -0.124843   0.074068   0.202235   5.369183
     7  H    0.417105  -0.055072   0.009788  -0.002514   0.009788  -0.055072
     8  H   -0.055072   0.417106  -0.055072   0.009789  -0.002514   0.009789
     9  H    0.009788  -0.055072   0.417105  -0.055072   0.009788  -0.002514
    10  H   -0.002514   0.009788  -0.055072   0.417105  -0.055072   0.009788
    11  H    0.009789  -0.002514   0.009789  -0.055072   0.417106  -0.055072
    12  H   -0.055072   0.009788  -0.002514   0.009788  -0.055072   0.417105
               7          8          9         10         11         12
     1  C    0.417105  -0.055072   0.009788  -0.002514   0.009789  -0.055072
     2  C   -0.055072   0.417106  -0.055072   0.009788  -0.002514   0.009788
     3  C    0.009788  -0.055072   0.417105  -0.055072   0.009789  -0.002514
     4  C   -0.002514   0.009789  -0.055072   0.417105  -0.055072   0.009788
     5  C    0.009788  -0.002514   0.009788  -0.055072   0.417106  -0.055072
     6  C   -0.055072   0.009789  -0.002514   0.009788  -0.055072   0.417105
     7  H    0.568320  -0.006471  -0.000216   0.000068  -0.000216  -0.006471
     8  H   -0.006471   0.568321  -0.006471  -0.000216   0.000068  -0.000216
     9  H   -0.000216  -0.006471   0.568320  -0.006471  -0.000216   0.000068
    10  H    0.000068  -0.000216  -0.006471   0.568320  -0.006471  -0.000216
    11  H   -0.000216   0.000068  -0.000216  -0.006471   0.568321  -0.006471
    12  H   -0.006471  -0.000216   0.000068  -0.000216  -0.006471   0.568320
 Mulliken charges:
               1
     1  C   -0.120962
     2  C   -0.120959
     3  C   -0.120962
     4  C   -0.120962
     5  C   -0.120959
     6  C   -0.120962
     7  H    0.120961
     8  H    0.120960
     9  H    0.120961
    10  H    0.120961
    11  H    0.120960
    12  H    0.120961
 Sum of Mulliken charges =  -0.00000
 Mulliken charges with hydrogens summed into heavy atoms:
               1
     1  C   -0.000001
     2  C    0.000002
     3  C   -0.000001
     4  C   -0.000001
     5  C    0.000002
     6  C   -0.000001
 Electronic spatial extent (au):  <R**2>=            457.3490
 Charge=             -0.0000 electrons
 Dipole moment (field-independent basis, Debye):
    X=             -0.0000    Y=             -0.0000    Z=             -0.0000  Tot=              0.0000
 Quadrupole moment (field-independent basis, Debye-Ang):
   XX=            -32.0005   YY=            -32.0005   ZZ=            -40.1719
   XY=             -0.0000   XZ=             -0.0000   YZ=              0.0000
 Traceless Quadrupole moment (field-independent basis, Debye-Ang):
   XX=              2.7238   YY=              2.7238   ZZ=             -5.4476
   XY=             -0.0000   XZ=             -0.0000   YZ=              0.0000
 Octapole moment (field-independent basis, Debye-Ang**2):
  XXX=             -0.0000  YYY=             -0.0000  ZZZ=             -0.0000  XYY=             -0.0000
  XXY=             -0.0000  XXZ=              0.0000  XZZ=             -0.0000  YZZ=              0.0000
  YYZ=             -0.0000  XYZ=              0.0000
 Hexadecapole moment (field-independent basis, Debye-Ang**3):
 XXXX=           -272.4859 YYYY=           -272.4842 ZZZZ=            -48.1851 XXXY=             -0.0000
 XXXZ=              0.0000 YYYX=             -0.0000 YYYZ=             -0.0000 ZZZX=             -0.0000
 ZZZY=             -0.0000 XXYY=            -90.8280 XXZZ=            -63.9530 YYZZ=            -63.9527
 XXYZ=              0.0000 YYXZ=             -0.0000 ZZXY=             -0.0000
 N-N= 2.039941871599D+02 E-N=-9.460277976533D+02  KE= 2.317095063704D+02
 No NMR shielding tensors so no spin-rotation constants.
 Leave Link  601 at Fri Jan 31 14:49:59 2025, MaxMem=   104857600 cpu:               0.1 elap:               0.1
 (Enter /sw/cluster/pub/apps//g16/l9999.exe)
 1\1\GINC-N11\SP\RCCSD-FC\def2TZVP\C6H6\UNKNOWN\31-Jan-2025\0\\#P CCSD/
 def2tzvp nosymm Density=Current\\Single-Point\\0,1\C,0,1.20467177,0.69
 551377,0.\C,0,0.,1.39102632,0.\C,0,-1.20467177,0.69551377,0.\C,0,-1.20
 467177,-0.69551377,0.\C,0,0.,-1.39102632,0.\C,0,1.20467177,-0.69551377
 ,0.\H,0,2.14253772,1.23699958,0.\H,0,0.,2.47398441,0.\H,0,-2.14253772,
 1.23699958,0.\H,0,-2.14253772,-1.23699958,0.\H,0,0.,-2.47398441,0.\H,0
 ,2.14253772,-1.23699958,0.\\Version=ES64L-G16RevA.03\HF=-230.7844323\M
 P2=-231.715548\MP3=-231.7434485\MP4D=-231.7659059\MP4DQ=-231.73528\MP4
 SDQ=-231.7428383\CCSD=-231.7430505\RMSD=1.848e-09\Dipole=0.,0.,0.\Quad
 rupole=2.025082,2.0250518,-4.0501338,0.,0.,0.\PG=D02H [C2"(H1C1.C1H1),
 SG(C4H4)]\\@


 LEARN FROM YESTERDAY,
 LIVE FOR TODAY,
 LOOK TO TOMORROW,
 REST THIS AFTERNOON.

           -- SNOOPY
 Job cpu time:       0 days  0 hours 22 minutes 31.4 seconds.
 Elapsed time:       0 days  0 hours 22 minutes 33.6 seconds.
 File lengths (MBytes):  RWF=  51787 Int=      0 D2E=      0 Chk=      7 Scr=      1
 Normal termination of Gaussian 16 at Fri Jan 31 14:50:00 2025.
