Single-Point                                                            
SP        RCCSD-FC                                                    def2TZVP            
Number of atoms                            I               12
Info1-9                                    I   N=           9
          19          19           0           0           0         110
           1          14         301
Full Title                                 C   N=           1
Single-Point
Route                                      C   N=           4
#P CCSD/def2tzvp nosymm Density=Current         
Charge                                     I                0
Multiplicity                               I                1
Number of electrons                        I               42
Number of alpha electrons                  I               21
Number of beta electrons                   I               21
Number of basis functions                  I              222
Number of independent functions            I              222
Number of point charges in /Mol/           I                0
Number of translation vectors              I                0
Atomic numbers                             I   N=          12
           6           6           6           6           6           6
           1           1           1           1           1           1
Nuclear charges                            R   N=          12
  6.00000000E+00  6.00000000E+00  6.00000000E+00  6.00000000E+00  6.00000000E+00
  6.00000000E+00  1.00000000E+00  1.00000000E+00  1.00000000E+00  1.00000000E+00
  1.00000000E+00  1.00000000E+00
Current cartesian coordinates              R   N=          36
  2.27649972E+00  1.31433054E+00  0.00000000E+00  0.00000000E+00  2.62865878E+00
  0.00000000E+00 -2.27649972E+00  1.31433054E+00  0.00000000E+00 -2.27649972E+00
 -1.31433054E+00  0.00000000E+00  0.00000000E+00 -2.62865878E+00  0.00000000E+00
  2.27649972E+00 -1.31433054E+00  0.00000000E+00  4.04880950E+00  2.33759042E+00
  0.00000000E+00  0.00000000E+00  4.67515297E+00  0.00000000E+00 -4.04880950E+00
  2.33759042E+00  0.00000000E+00 -4.04880950E+00 -2.33759042E+00  0.00000000E+00
  0.00000000E+00 -4.67515297E+00  0.00000000E+00  4.04880950E+00 -2.33759042E+00
  0.00000000E+00
Number of symbols in /Mol/                 I                0
Force Field                                I                0
Atom Types                                 C   N=          12
                                                            
                                                            
                        
Int Atom Types                             I   N=          12
           0           0           0           0           0           0
           0           0           0           0           0           0
MM charges                                 R   N=          12
  0.00000000E+00  0.00000000E+00  0.00000000E+00  0.00000000E+00  0.00000000E+00
  0.00000000E+00  0.00000000E+00  0.00000000E+00  0.00000000E+00  0.00000000E+00
  0.00000000E+00  0.00000000E+00
Integer atomic weights                     I   N=          12
          12          12          12          12          12          12
           1           1           1           1           1           1
Real atomic weights                        R   N=          12
  1.20000000E+01  1.20000000E+01  1.20000000E+01  1.20000000E+01  1.20000000E+01
  1.20000000E+01  1.00782504E+00  1.00782504E+00  1.00782504E+00  1.00782504E+00
  1.00782504E+00  1.00782504E+00
Atom fragment info                         I   N=          12
           0           0           0           0           0           0
           0           0           0           0           0           0
Atom residue num                           I   N=          12
           0           0           0           0           0           0
           0           0           0           0           0           0
Nuclear spins                              I   N=          12
           0           0           0           0           0           0
           1           1           1           1           1           1
Nuclear ZEff                               R   N=          12
 -3.60000000E+00 -3.60000000E+00 -3.60000000E+00 -3.60000000E+00 -3.60000000E+00
 -3.60000000E+00 -1.00000000E+00 -1.00000000E+00 -1.00000000E+00 -1.00000000E+00
 -1.00000000E+00 -1.00000000E+00
Nuclear ZNuc                               R   N=          12
  6.00000000E+00  6.00000000E+00  6.00000000E+00  6.00000000E+00  6.00000000E+00
  6.00000000E+00  1.00000000E+00  1.00000000E+00  1.00000000E+00  1.00000000E+00
  1.00000000E+00  1.00000000E+00
Nuclear QMom                               R   N=          12
  0.00000000E+00  0.00000000E+00  0.00000000E+00  0.00000000E+00  0.00000000E+00
  0.00000000E+00  0.00000000E+00  0.00000000E+00  0.00000000E+00  0.00000000E+00
  0.00000000E+00  0.00000000E+00
Nuclear GFac                               R   N=          12
  0.00000000E+00  0.00000000E+00  0.00000000E+00  0.00000000E+00  0.00000000E+00
  0.00000000E+00  2.79284600E+00  2.79284600E+00  2.79284600E+00  2.79284600E+00
  2.79284600E+00  2.79284600E+00
MicOpt                                     I   N=          12
          -1          -1          -1          -1          -1          -1
          -1          -1          -1          -1          -1          -1
Number of residues                         I                0
Number of secondary structures             I                0
Number of contracted shells                I               90
Number of primitive shells                 I              156
Pure/Cartesian d shells                    I                0
Pure/Cartesian f shells                    I                0
Highest angular momentum                   I                3
Largest degree of contraction              I                6
Shell types                                I   N=          90
           0           0           0           0           0           1
           1           1          -2          -2          -3           0
           0           0           0           0           1           1
           1          -2          -2          -3           0           0
           0           0           0           1           1           1
          -2          -2          -3           0           0           0
           0           0           1           1           1          -2
          -2          -3           0           0           0           0
           0           1           1           1          -2          -2
          -3           0           0           0           0           0
           1           1           1          -2          -2          -3
           0           0           0           1           0           0
           0           1           0           0           0           1
           0           0           0           1           0           0
           0           1           0           0           0           1
Number of primitives per shell             I   N=          90
           6           2           1           1           1           4
           1           1           1           1           1           6
           2           1           1           1           4           1
           1           1           1           1           6           2
           1           1           1           4           1           1
           1           1           1           6           2           1
           1           1           4           1           1           1
           1           1           6           2           1           1
           1           4           1           1           1           1
           1           6           2           1           1           1
           4           1           1           1           1           1
           3           1           1           1           3           1
           1           1           3           1           1           1
           3           1           1           1           3           1
           1           1           3           1           1           1
Shell to atom map                          I   N=          90
           1           1           1           1           1           1
           1           1           1           1           1           2
           2           2           2           2           2           2
           2           2           2           2           3           3
           3           3           3           3           3           3
           3           3           3           4           4           4
           4           4           4           4           4           4
           4           4           5           5           5           5
           5           5           5           5           5           5
           5           6           6           6           6           6
           6           6           6           6           6           6
           7           7           7           7           8           8
           8           8           9           9           9           9
          10          10          10          10          11          11
          11          11          12          12          12          12
Primitive exponents                        R   N=         156
  1.35753497E+04  2.03523337E+03  4.63225624E+02  1.31200196E+02  4.28530159E+01
  1.55841858E+01  6.20671385E+00  2.57648965E+00  5.76963394E-01  2.29728314E-01
  9.51644400E-02  3.46972322E+01  7.95826228E+00  2.37808269E+00  8.14332082E-01
  2.88875473E-01  1.00568237E-01  1.09700000E+00  3.18000000E-01  7.61000000E-01
  1.35753497E+04  2.03523337E+03  4.63225624E+02  1.31200196E+02  4.28530159E+01
  1.55841858E+01  6.20671385E+00  2.57648965E+00  5.76963394E-01  2.29728314E-01
  9.51644400E-02  3.46972322E+01  7.95826228E+00  2.37808269E+00  8.14332082E-01
  2.88875473E-01  1.00568237E-01  1.09700000E+00  3.18000000E-01  7.61000000E-01
  1.35753497E+04  2.03523337E+03  4.63225624E+02  1.31200196E+02  4.28530159E+01
  1.55841858E+01  6.20671385E+00  2.57648965E+00  5.76963394E-01  2.29728314E-01
  9.51644400E-02  3.46972322E+01  7.95826228E+00  2.37808269E+00  8.14332082E-01
  2.88875473E-01  1.00568237E-01  1.09700000E+00  3.18000000E-01  7.61000000E-01
  1.35753497E+04  2.03523337E+03  4.63225624E+02  1.31200196E+02  4.28530159E+01
  1.55841858E+01  6.20671385E+00  2.57648965E+00  5.76963394E-01  2.29728314E-01
  9.51644400E-02  3.46972322E+01  7.95826228E+00  2.37808269E+00  8.14332082E-01
  2.88875473E-01  1.00568237E-01  1.09700000E+00  3.18000000E-01  7.61000000E-01
  1.35753497E+04  2.03523337E+03  4.63225624E+02  1.31200196E+02  4.28530159E+01
  1.55841858E+01  6.20671385E+00  2.57648965E+00  5.76963394E-01  2.29728314E-01
  9.51644400E-02  3.46972322E+01  7.95826228E+00  2.37808269E+00  8.14332082E-01
  2.88875473E-01  1.00568237E-01  1.09700000E+00  3.18000000E-01  7.61000000E-01
  1.35753497E+04  2.03523337E+03  4.63225624E+02  1.31200196E+02  4.28530159E+01
  1.55841858E+01  6.20671385E+00  2.57648965E+00  5.76963394E-01  2.29728314E-01
  9.51644400E-02  3.46972322E+01  7.95826228E+00  2.37808269E+00  8.14332082E-01
  2.88875473E-01  1.00568237E-01  1.09700000E+00  3.18000000E-01  7.61000000E-01
  3.40613410E+01  5.12357460E+00  1.16466260E+00  3.27230410E-01  1.03072410E-01
  8.00000000E-01  3.40613410E+01  5.12357460E+00  1.16466260E+00  3.27230410E-01
  1.03072410E-01  8.00000000E-01  3.40613410E+01  5.12357460E+00  1.16466260E+00
  3.27230410E-01  1.03072410E-01  8.00000000E-01  3.40613410E+01  5.12357460E+00
  1.16466260E+00  3.27230410E-01  1.03072410E-01  8.00000000E-01  3.40613410E+01
  5.12357460E+00  1.16466260E+00  3.27230410E-01  1.03072410E-01  8.00000000E-01
  3.40613410E+01  5.12357460E+00  1.16466260E+00  3.27230410E-01  1.03072410E-01
  8.00000000E-01
Contraction coefficients                   R   N=         156
  6.06455036E-04  4.69790889E-03  2.43324776E-02  9.73999683E-02  3.01955843E-01
  6.62336091E-01  6.55953085E-01  3.75856333E-01  1.00000000E+00  1.00000000E+00
  1.00000000E+00  1.13272200E-02  7.61696592E-02  3.01922522E-01  7.27850273E-01
  1.00000000E+00  1.00000000E+00  1.00000000E+00  1.00000000E+00  1.00000000E+00
  6.06455036E-04  4.69790889E-03  2.43324776E-02  9.73999683E-02  3.01955843E-01
  6.62336091E-01  6.55953085E-01  3.75856333E-01  1.00000000E+00  1.00000000E+00
  1.00000000E+00  1.13272200E-02  7.61696592E-02  3.01922522E-01  7.27850273E-01
  1.00000000E+00  1.00000000E+00  1.00000000E+00  1.00000000E+00  1.00000000E+00
  6.06455036E-04  4.69790889E-03  2.43324776E-02  9.73999683E-02  3.01955843E-01
  6.62336091E-01  6.55953085E-01  3.75856333E-01  1.00000000E+00  1.00000000E+00
  1.00000000E+00  1.13272200E-02  7.61696592E-02  3.01922522E-01  7.27850273E-01
  1.00000000E+00  1.00000000E+00  1.00000000E+00  1.00000000E+00  1.00000000E+00
  6.06455036E-04  4.69790889E-03  2.43324776E-02  9.73999683E-02  3.01955843E-01
  6.62336091E-01  6.55953085E-01  3.75856333E-01  1.00000000E+00  1.00000000E+00
  1.00000000E+00  1.13272200E-02  7.61696592E-02  3.01922522E-01  7.27850273E-01
  1.00000000E+00  1.00000000E+00  1.00000000E+00  1.00000000E+00  1.00000000E+00
  6.06455036E-04  4.69790889E-03  2.43324776E-02  9.73999683E-02  3.01955843E-01
  6.62336091E-01  6.55953085E-01  3.75856333E-01  1.00000000E+00  1.00000000E+00
  1.00000000E+00  1.13272200E-02  7.61696592E-02  3.01922522E-01  7.27850273E-01
  1.00000000E+00  1.00000000E+00  1.00000000E+00  1.00000000E+00  1.00000000E+00
  6.06455036E-04  4.69790889E-03  2.43324776E-02  9.73999683E-02  3.01955843E-01
  6.62336091E-01  6.55953085E-01  3.75856333E-01  1.00000000E+00  1.00000000E+00
  1.00000000E+00  1.13272200E-02  7.61696592E-02  3.01922522E-01  7.27850273E-01
  1.00000000E+00  1.00000000E+00  1.00000000E+00  1.00000000E+00  1.00000000E+00
  2.54393072E-02  1.90085949E-01  8.52441130E-01  1.00000000E+00  1.00000000E+00
  1.00000000E+00  2.54393072E-02  1.90085949E-01  8.52441130E-01  1.00000000E+00
  1.00000000E+00  1.00000000E+00  2.54393072E-02  1.90085949E-01  8.52441130E-01
  1.00000000E+00  1.00000000E+00  1.00000000E+00  2.54393072E-02  1.90085949E-01
  8.52441130E-01  1.00000000E+00  1.00000000E+00  1.00000000E+00  2.54393072E-02
  1.90085949E-01  8.52441130E-01  1.00000000E+00  1.00000000E+00  1.00000000E+00
  2.54393072E-02  1.90085949E-01  8.52441130E-01  1.00000000E+00  1.00000000E+00
  1.00000000E+00
Coordinates of each shell                  R   N=         270
  2.27649972E+00  1.31433054E+00  0.00000000E+00  2.27649972E+00  1.31433054E+00
  0.00000000E+00  2.27649972E+00  1.31433054E+00  0.00000000E+00  2.27649972E+00
  1.31433054E+00  0.00000000E+00  2.27649972E+00  1.31433054E+00  0.00000000E+00
  2.27649972E+00  1.31433054E+00  0.00000000E+00  2.27649972E+00  1.31433054E+00
  0.00000000E+00  2.27649972E+00  1.31433054E+00  0.00000000E+00  2.27649972E+00
  1.31433054E+00  0.00000000E+00  2.27649972E+00  1.31433054E+00  0.00000000E+00
  2.27649972E+00  1.31433054E+00  0.00000000E+00  0.00000000E+00  2.62865878E+00
  0.00000000E+00  0.00000000E+00  2.62865878E+00  0.00000000E+00  0.00000000E+00
  2.62865878E+00  0.00000000E+00  0.00000000E+00  2.62865878E+00  0.00000000E+00
  0.00000000E+00  2.62865878E+00  0.00000000E+00  0.00000000E+00  2.62865878E+00
  0.00000000E+00  0.00000000E+00  2.62865878E+00  0.00000000E+00  0.00000000E+00
  2.62865878E+00  0.00000000E+00  0.00000000E+00  2.62865878E+00  0.00000000E+00
  0.00000000E+00  2.62865878E+00  0.00000000E+00  0.00000000E+00  2.62865878E+00
  0.00000000E+00 -2.27649972E+00  1.31433054E+00  0.00000000E+00 -2.27649972E+00
  1.31433054E+00  0.00000000E+00 -2.27649972E+00  1.31433054E+00  0.00000000E+00
 -2.27649972E+00  1.31433054E+00  0.00000000E+00 -2.27649972E+00  1.31433054E+00
  0.00000000E+00 -2.27649972E+00  1.31433054E+00  0.00000000E+00 -2.27649972E+00
  1.31433054E+00  0.00000000E+00 -2.27649972E+00  1.31433054E+00  0.00000000E+00
 -2.27649972E+00  1.31433054E+00  0.00000000E+00 -2.27649972E+00  1.31433054E+00
  0.00000000E+00 -2.27649972E+00  1.31433054E+00  0.00000000E+00 -2.27649972E+00
 -1.31433054E+00  0.00000000E+00 -2.27649972E+00 -1.31433054E+00  0.00000000E+00
 -2.27649972E+00 -1.31433054E+00  0.00000000E+00 -2.27649972E+00 -1.31433054E+00
  0.00000000E+00 -2.27649972E+00 -1.31433054E+00  0.00000000E+00 -2.27649972E+00
 -1.31433054E+00  0.00000000E+00 -2.27649972E+00 -1.31433054E+00  0.00000000E+00
 -2.27649972E+00 -1.31433054E+00  0.00000000E+00 -2.27649972E+00 -1.31433054E+00
  0.00000000E+00 -2.27649972E+00 -1.31433054E+00  0.00000000E+00 -2.27649972E+00
 -1.31433054E+00  0.00000000E+00  0.00000000E+00 -2.62865878E+00  0.00000000E+00
  0.00000000E+00 -2.62865878E+00  0.00000000E+00  0.00000000E+00 -2.62865878E+00
  0.00000000E+00  0.00000000E+00 -2.62865878E+00  0.00000000E+00  0.00000000E+00
 -2.62865878E+00  0.00000000E+00  0.00000000E+00 -2.62865878E+00  0.00000000E+00
  0.00000000E+00 -2.62865878E+00  0.00000000E+00  0.00000000E+00 -2.62865878E+00
  0.00000000E+00  0.00000000E+00 -2.62865878E+00  0.00000000E+00  0.00000000E+00
 -2.62865878E+00  0.00000000E+00  0.00000000E+00 -2.62865878E+00  0.00000000E+00
  2.27649972E+00 -1.31433054E+00  0.00000000E+00  2.27649972E+00 -1.31433054E+00
  0.00000000E+00  2.27649972E+00 -1.31433054E+00  0.00000000E+00  2.27649972E+00
 -1.31433054E+00  0.00000000E+00  2.27649972E+00 -1.31433054E+00  0.00000000E+00
  2.27649972E+00 -1.31433054E+00  0.00000000E+00  2.27649972E+00 -1.31433054E+00
  0.00000000E+00  2.27649972E+00 -1.31433054E+00  0.00000000E+00  2.27649972E+00
 -1.31433054E+00  0.00000000E+00  2.27649972E+00 -1.31433054E+00  0.00000000E+00
  2.27649972E+00 -1.31433054E+00  0.00000000E+00  4.04880950E+00  2.33759042E+00
  0.00000000E+00  4.04880950E+00  2.33759042E+00  0.00000000E+00  4.04880950E+00
  2.33759042E+00  0.00000000E+00  4.04880950E+00  2.33759042E+00  0.00000000E+00
  0.00000000E+00  4.67515297E+00  0.00000000E+00  0.00000000E+00  4.67515297E+00
  0.00000000E+00  0.00000000E+00  4.67515297E+00  0.00000000E+00  0.00000000E+00
  4.67515297E+00  0.00000000E+00 -4.04880950E+00  2.33759042E+00  0.00000000E+00
 -4.04880950E+00  2.33759042E+00  0.00000000E+00 -4.04880950E+00  2.33759042E+00
  0.00000000E+00 -4.04880950E+00  2.33759042E+00  0.00000000E+00 -4.04880950E+00
 -2.33759042E+00  0.00000000E+00 -4.04880950E+00 -2.33759042E+00  0.00000000E+00
 -4.04880950E+00 -2.33759042E+00  0.00000000E+00 -4.04880950E+00 -2.33759042E+00
  0.00000000E+00  0.00000000E+00 -4.67515297E+00  0.00000000E+00  0.00000000E+00
 -4.67515297E+00  0.00000000E+00  0.00000000E+00 -4.67515297E+00  0.00000000E+00
  0.00000000E+00 -4.67515297E+00  0.00000000E+00  4.04880950E+00 -2.33759042E+00
  0.00000000E+00  4.04880950E+00 -2.33759042E+00  0.00000000E+00  4.04880950E+00
 -2.33759042E+00  0.00000000E+00  4.04880950E+00 -2.33759042E+00  0.00000000E+00
Num ILSW                                   I              100
ILSW                                       I   N=         100
           0           0           0           0           2           0
           0           0           0           0           0          -1
           5           0           0           0           0           0
           0           0           0           0           0           0
           1           1           0           0           0           0
           0           0      100000           0          -1           0
           0           0           0           0           0           0
           0           0           0           1           1           0
           0 -2000000000           1           0           0           0
           0           0           4          52           0           0
           0           0           0           0           0           0
           0           0           0          12           4           1
           0           0           0           0           0           0
           0           0           0           0           0           0
           0           0           0           0           0           0
           0           0           0           0           0           0
           0           0           0           0
Num RLSW                                   I               52
RLSW                                       R   N=          52
  1.00000000E+00  1.00000000E+00  1.00000000E+00  1.00000000E+00  1.00000000E+00
  0.00000000E+00  0.00000000E+00  1.00000000E+00  0.00000000E+00  0.00000000E+00
  0.00000000E+00  0.00000000E+00  1.00000000E+00  0.00000000E+00  0.00000000E+00
  0.00000000E+00  0.00000000E+00  1.00000000E+00  0.00000000E+00  0.00000000E+00
  0.00000000E+00  0.00000000E+00  1.00000000E+00  0.00000000E+00  0.00000000E+00
  0.00000000E+00  0.00000000E+00  1.00000000E+00  0.00000000E+00  0.00000000E+00
  0.00000000E+00  0.00000000E+00  1.00000000E+00  0.00000000E+00  0.00000000E+00
  0.00000000E+00  0.00000000E+00  0.00000000E+00  1.00000000E+00  1.00000000E+00
  0.00000000E+00  1.00000000E+00  0.00000000E+00  0.00000000E+00  0.00000000E+00
  0.00000000E+00  0.00000000E+00  0.00000000E+00  0.00000000E+00  0.00000000E+00
  0.00000000E+00  0.00000000E+00
ECP-MxAtEC                                 I           250000
ECP-MaxLECP                                I               10
ECP-MaxAtL                                 I          2250000
ECP-MxTECP                                 I         11250000
ECP-LenNCZ                                 I                0
ECP-KFirst                                 I   N=         120
           0           0           0           0           0           0
           0           0           0           0           0           0
           0           0           0           0           0           0
           0           0           0           0           0           0
           0           0           0           0           0           0
           0           0           0           0           0           0
           0           0           0           0           0           0
           0           0           0           0           0           0
           0           0           0           0           0           0
           0           0           0           0           0           0
           0           0           0           0           0           0
           0           0           0           0           0           0
           0           0           0           0           0           0
           0           0           0           0           0           0
           0           0           0           0           0           0
           0           0           0           0           0           0
           0           0           0           0           0           0
           0           0           0           0           0           0
           0           0           0           0           0           0
           0           0           0           0           0           0
ECP-KLast                                  I   N=         120
           0           0           0           0           0           0
           0           0           0           0           0           0
           0           0           0           0           0           0
           0           0           0           0           0           0
           0           0           0           0           0           0
           0           0           0           0           0           0
           0           0           0           0           0           0
           0           0           0           0           0           0
           0           0           0           0           0           0
           0           0           0           0           0           0
           0           0           0           0           0           0
           0           0           0           0           0           0
           0           0           0           0           0           0
           0           0           0           0           0           0
           0           0           0           0           0           0
           0           0           0           0           0           0
           0           0           0           0           0           0
           0           0           0           0           0           0
           0           0           0           0           0           0
           0           0           0           0           0           0
ECP-LMax                                   I   N=          12
           0           0           0           0           0           0
           0           0           0           0           0           0
ECP-LPSkip                                 I   N=          12
           1           1           1           1           1           1
           1           1           1           1           1           1
ECP-RNFroz                                 R   N=          12
  0.00000000E+00  0.00000000E+00  0.00000000E+00  0.00000000E+00  0.00000000E+00
  0.00000000E+00  0.00000000E+00  0.00000000E+00  0.00000000E+00  0.00000000E+00
  0.00000000E+00  0.00000000E+00
ECP-NLP                                    I                0
ECP-CLP1                                   R      0.000000000000000E+00
ECP-CLP2                                   R      0.000000000000000E+00
ECP-ZLP                                    R      0.000000000000000E+00
MxBond                                     I                3
NBond                                      I   N=          12
           3           3           3           3           3           3
           1           1           1           1           1           1
IBond                                      I   N=          36
           2           6           7           1           3           8
           2           4           9           3           5          10
           4           6          11           1           5          12
           1           0           0           2           0           0
           3           0           0           4           0           0
           5           0           0           6           0           0
RBond                                      R   N=          36
  1.50000000E+00  1.50000000E+00  1.00000000E+00  1.50000000E+00  1.50000000E+00
  1.00000000E+00  1.50000000E+00  1.50000000E+00  1.00000000E+00  1.50000000E+00
  1.50000000E+00  1.00000000E+00  1.50000000E+00  1.50000000E+00  1.00000000E+00
  1.50000000E+00  1.50000000E+00  1.00000000E+00  1.00000000E+00  0.00000000E+00
  0.00000000E+00  1.00000000E+00  0.00000000E+00  0.00000000E+00  1.00000000E+00
  0.00000000E+00  0.00000000E+00  1.00000000E+00  0.00000000E+00  0.00000000E+00
  1.00000000E+00  0.00000000E+00  0.00000000E+00  1.00000000E+00  0.00000000E+00
  0.00000000E+00
Virial Ratio                               R      2.001031529818823E+00
SCF Energy                                 R     -2.307844322950165E+02
MP2 Energy                                 R     -2.317155480398040E+02
MP3 Energy                                 R     -2.317434485197467E+02
MP4D Energy                                R     -2.317659058902108E+02
MP4DQ Energy                               R     -2.317352799962355E+02
MP4SDQ Energy                              R     -2.317428382736223E+02
Cluster Energy                             R     -2.317430505087458E+02
Total Energy                               R     -2.317430505087458E+02
Post-SCF wavefunction norm                 R      1.165821984632290E+00
RMS Density                                R      1.848409067369002E-09
Job Status                                 I                1
Nuclear derivative order                   I                0
External E-field                           R   N=          35
  0.00000000E+00  0.00000000E+00  0.00000000E+00  0.00000000E+00  0.00000000E+00
  0.00000000E+00  0.00000000E+00  0.00000000E+00  0.00000000E+00  0.00000000E+00
  0.00000000E+00  0.00000000E+00  0.00000000E+00  0.00000000E+00  0.00000000E+00
  0.00000000E+00  0.00000000E+00  0.00000000E+00  0.00000000E+00  0.00000000E+00
  0.00000000E+00  0.00000000E+00  0.00000000E+00  0.00000000E+00  0.00000000E+00
  0.00000000E+00  0.00000000E+00  0.00000000E+00  0.00000000E+00  0.00000000E+00
  0.00000000E+00  0.00000000E+00  0.00000000E+00  0.00000000E+00  0.00000000E+00
IOpCl                                      I                0
IROHF                                      I                0
Alpha Orbital Energies                     R   N=         222
 -1.12332958E+01 -1.12327142E+01 -1.12327141E+01 -1.12314548E+01 -1.12314548E+01
 -1.12308380E+01 -1.15066327E+00 -1.01427186E+00 -1.01426948E+00 -8.23290220E-01
 -8.23289995E-01 -7.09356880E-01 -6.42084289E-01 -6.19641063E-01 -5.87373513E-01
 -5.87370512E-01 -5.02985044E-01 -4.94079015E-01 -4.94078301E-01 -3.36659664E-01
 -3.36657421E-01  1.24384828E-01  1.24385550E-01  1.55712844E-01  1.78886362E-01
  1.78886457E-01  2.05828125E-01  2.05828729E-01  2.20217341E-01  2.65887269E-01
  3.17377655E-01  3.30878300E-01  3.33319615E-01  3.33320672E-01  3.35711419E-01
  3.48567922E-01  3.48568948E-01  3.76878279E-01  3.76878812E-01  4.16960457E-01
  4.16961835E-01  4.74360479E-01  4.74360818E-01  4.85521157E-01  4.95544008E-01
  4.95544145E-01  5.44435435E-01  5.65373998E-01  5.65374710E-01  5.74464705E-01
  5.76809462E-01  5.90072314E-01  6.03952123E-01  6.03952217E-01  6.17326197E-01
  6.40300797E-01  6.75836010E-01  6.75837034E-01  6.78483417E-01  6.78487480E-01
  8.27512360E-01  8.27512708E-01  8.44546050E-01  9.08674676E-01  9.15010218E-01
  9.15010442E-01  9.34827592E-01  9.42702759E-01  9.42705594E-01  1.01375464E+00
  1.04672682E+00  1.05922859E+00  1.05922933E+00  1.07572244E+00  1.09472486E+00