 Entering Gaussian System, Link 0=g16
 Initial command:
 /sw/cluster/pub/apps//g16/l1.exe "/data/mmaximo/27734/Gau-1914838.inp" -scrdir="/data/mmaximo/27734/"
 Entering Link 1 = /sw/cluster/pub/apps//g16/l1.exe PID=   1914839.
  
 Copyright (c) 1988,1990,1992,1993,1995,1998,2003,2009,2016,
            Gaussian, Inc.  All Rights Reserved.
  
 This is part of the Gaussian(R) 16 program.  It is based on
 the Gaussian(R) 09 system (copyright 2009, Gaussian, Inc.),
 the Gaussian(R) 03 system (copyright 2003, Gaussian, Inc.),
 the Gaussian(R) 98 system (copyright 1998, Gaussian, Inc.),
 the Gaussian(R) 94 system (copyright 1995, Gaussian, Inc.),
 the Gaussian 92(TM) system (copyright 1992, Gaussian, Inc.),
 the Gaussian 90(TM) system (copyright 1990, Gaussian, Inc.),
 the Gaussian 88(TM) system (copyright 1988, Gaussian, Inc.),
 the Gaussian 86(TM) system (copyright 1986, Carnegie Mellon
 University), and the Gaussian 82(TM) system (copyright 1983,
 Carnegie Mellon University). Gaussian is a federally registered
 trademark of Gaussian, Inc.
  
 This software contains proprietary and confidential information,
 including trade secrets, belonging to Gaussian, Inc.
  
 This software is provided under written license and may be
 used, copied, transmitted, or stored only in accord with that
 written license.
  
 The following legend is applicable only to US Government
 contracts under FAR:
  
                    RESTRICTED RIGHTS LEGEND
  
 Use, reproduction and disclosure by the US Government is
 subject to restrictions as set forth in subparagraphs (a)
 and (c) of the Commercial Computer Software - Restricted
 Rights clause in FAR 52.227-19.
  
 Gaussian, Inc.
 340 Quinnipiac St., Bldg. 40, Wallingford CT 06492
  
  
 ---------------------------------------------------------------
 Warning -- This program may not be used in any manner that
 competes with the business of Gaussian, Inc. or will provide
 assistance to any competitor of Gaussian, Inc.  The licensee
 of this program is prohibited from giving any competitor of
 Gaussian, Inc. access to this program.  By using this program,
 the user acknowledges that Gaussian, Inc. is engaged in the
 business of creating and licensing software in the field of
 computational chemistry and represents and warrants to the
 licensee that it is not a competitor of Gaussian, Inc. and that
 it will not use this program in any manner prohibited above.
 ---------------------------------------------------------------
  

 Cite this work as:
 Gaussian 16, Revision A.03,
 M. J. Frisch, G. W. Trucks, H. B. Schlegel, G. E. Scuseria, 
 M. A. Robb, J. R. Cheeseman, G. Scalmani, V. Barone, 
 G. A. Petersson, H. Nakatsuji, X. Li, M. Caricato, A. V. Marenich, 
 J. Bloino, B. G. Janesko, R. Gomperts, B. Mennucci, H. P. Hratchian, 
 J. V. Ortiz, A. F. Izmaylov, J. L. Sonnenberg, D. Williams-Young, 
 F. Ding, F. Lipparini, F. Egidi, J. Goings, B. Peng, A. Petrone, 
 T. Henderson, D. Ranasinghe, V. G. Zakrzewski, J. Gao, N. Rega, 
 G. Zheng, W. Liang, M. Hada, M. Ehara, K. Toyota, R. Fukuda, 
 J. Hasegawa, M. Ishida, T. Nakajima, Y. Honda, O. Kitao, H. Nakai, 
 T. Vreven, K. Throssell, J. A. Montgomery, Jr., J. E. Peralta, 
 F. Ogliaro, M. J. Bearpark, J. J. Heyd, E. N. Brothers, K. N. Kudin, 
 V. N. Staroverov, T. A. Keith, R. Kobayashi, J. Normand, 
 K. Raghavachari, A. P. Rendell, J. C. Burant, S. S. Iyengar, 
 J. Tomasi, M. Cossi, J. M. Millam, M. Klene, C. Adamo, R. Cammi, 
 J. W. Ochterski, R. L. Martin, K. Morokuma, O. Farkas, 
 J. B. Foresman, and D. J. Fox, Gaussian, Inc., Wallingford CT, 2016.
 
 ******************************************
 Gaussian 16:  ES64L-G16RevA.03 25-Dec-2016
                14-Jan-2025 
 ******************************************
 %chk=C6H4(CH2)2.chk
 ----------------------------------------
 #P B3LYP/def2tzvp nosymm Density=Current
 ----------------------------------------
 1/30=1,38=1,172=1/1;
 2/12=2,15=1,17=6,18=5,40=1/2;
 3/5=44,7=101,11=2,25=1,30=1,74=-5/1,2,3;
 4//1;
 5/5=2,38=5/2;
 6/7=2,8=2,9=2,10=2,22=-1,28=1/1;
 99/5=1,9=1/99;
 Leave Link    1 at Tue Jan 14 13:31:04 2025, MaxMem=           0 cpu:               0.0 elap:               0.0
 (Enter /sw/cluster/pub/apps//g16/l101.exe)
 ------------
 Single-Point
 ------------
 Symbolic Z-matrix:
 Charge =  0 Multiplicity = 1
 C                     0.        1.44256   0. 
 C                     1.23576   0.67162   0. 
 C                     1.23576  -0.67162   0. 
 C                     0.       -1.44256   0. 
 C                    -1.23576  -0.67162   0. 
 C                    -1.23576   0.67162   0. 
 C                     0.        2.79118   0. 
 H                     2.17131   1.21884   0. 
 H                     2.17131  -1.21884   0. 
 C                     0.       -2.79118   0. 
 H                    -2.17131  -1.21884   0. 
 H                    -2.17131   1.21884   0. 
 H                    -0.92364  -3.35516   0. 
 H                     0.92364  -3.35516   0. 
 H                     0.92364   3.35516   0. 
 H                    -0.92364   3.35516   0. 
 
 ITRead=  0  0  0  0  0  0  0  0  0  0  0  0  0  0  0  0
 MicOpt= -1 -1 -1 -1 -1 -1 -1 -1 -1 -1 -1 -1 -1 -1 -1 -1
 NAtoms=     16 NQM=       16 NQMF=       0 NMMI=      0 NMMIF=      0
                NMic=       0 NMicF=      0.
                    Isotopes and Nuclear Properties:
 (Nuclear quadrupole moments (NQMom) in fm**2, nuclear magnetic moments (NMagM)
  in nuclear magnetons)

  Atom         1           2           3           4           5           6           7           8           9          10
 IAtWgt=          12          12          12          12          12          12          12           1           1          12
 AtmWgt=  12.0000000  12.0000000  12.0000000  12.0000000  12.0000000  12.0000000  12.0000000   1.0078250   1.0078250  12.0000000
 NucSpn=           0           0           0           0           0           0           0           1           1           0
 AtZEff=  -0.0000000  -0.0000000  -0.0000000  -0.0000000  -0.0000000  -0.0000000  -0.0000000  -0.0000000  -0.0000000  -0.0000000
 NQMom=    0.0000000   0.0000000   0.0000000   0.0000000   0.0000000   0.0000000   0.0000000   0.0000000   0.0000000   0.0000000
 NMagM=    0.0000000   0.0000000   0.0000000   0.0000000   0.0000000   0.0000000   0.0000000   2.7928460   2.7928460   0.0000000
 AtZNuc=   6.0000000   6.0000000   6.0000000   6.0000000   6.0000000   6.0000000   6.0000000   1.0000000   1.0000000   6.0000000

  Atom        11          12          13          14          15          16
 IAtWgt=           1           1           1           1           1           1
 AtmWgt=   1.0078250   1.0078250   1.0078250   1.0078250   1.0078250   1.0078250
 NucSpn=           1           1           1           1           1           1
 AtZEff=  -0.0000000  -0.0000000  -0.0000000  -0.0000000  -0.0000000  -0.0000000
 NQMom=    0.0000000   0.0000000   0.0000000   0.0000000   0.0000000   0.0000000
 NMagM=    2.7928460   2.7928460   2.7928460   2.7928460   2.7928460   2.7928460
 AtZNuc=   1.0000000   1.0000000   1.0000000   1.0000000   1.0000000   1.0000000
 Leave Link  101 at Tue Jan 14 13:31:04 2025, MaxMem=   104857600 cpu:               0.0 elap:               0.0
 (Enter /sw/cluster/pub/apps//g16/l202.exe)
                          Input orientation:                          
 ---------------------------------------------------------------------
 Center     Atomic      Atomic             Coordinates (Angstroms)
 Number     Number       Type             X           Y           Z
 ---------------------------------------------------------------------
      1          6           0        0.000000    1.442557    0.000000
      2          6           0        1.235761    0.671624    0.000000
      3          6           0        1.235761   -0.671624    0.000000
      4          6           0        0.000000   -1.442557    0.000000
      5          6           0       -1.235761   -0.671624    0.000000
      6          6           0       -1.235761    0.671624    0.000000
      7          6           0        0.000000    2.791184    0.000000
      8          1           0        2.171315    1.218843    0.000000
      9          1           0        2.171315   -1.218843    0.000000
     10          6           0        0.000000   -2.791184    0.000000
     11          1           0       -2.171315   -1.218843    0.000000
     12          1           0       -2.171315    1.218843    0.000000
     13          1           0       -0.923636   -3.355160    0.000000
     14          1           0        0.923636   -3.355160    0.000000
     15          1           0        0.923636    3.355160    0.000000
     16          1           0       -0.923636    3.355160    0.000000
 ---------------------------------------------------------------------
                    Distance matrix (angstroms):
                    1          2          3          4          5
     1  C    0.000000
     2  C    1.456517   0.000000
     3  C    2.448850   1.343248   0.000000
     4  C    2.885113   2.448850   1.456517   0.000000
     5  C    2.448850   2.812959   2.471522   1.456517   0.000000
     6  C    1.456517   2.471522   2.812959   2.448850   1.343248
     7  C    1.348627   2.453495   3.676703   4.233741   3.676703
     8  H    2.182809   1.083840   2.109295   3.434772   3.896413
     9  H    3.434772   2.109295   1.083840   2.182809   3.450741
    10  C    4.233741   3.676703   2.453495   1.348627   2.453495
    11  H    3.434772   3.896413   3.450741   2.182809   1.083840
    12  H    2.182809   3.450741   3.896413   3.434772   2.109295
    13  H    4.885815   4.569244   3.444468   2.123948   2.701627
    14  H    4.885815   4.038863   2.701627   2.123948   3.444468
    15  H    2.123948   2.701627   4.038863   4.885815   4.569244
    16  H    2.123948   3.444468   4.569244   4.885815   4.038863
                    6          7          8          9         10
     6  C    0.000000
     7  C    2.453495   0.000000
     8  H    3.450741   2.680833   0.000000
     9  H    3.896413   4.560145   2.437686   0.000000
    10  C    3.676703   5.582368   4.560145   2.680833   0.000000
    11  H    2.109295   4.560145   4.980034   4.342629   2.680833
    12  H    1.083840   2.680833   4.342629   4.980034   4.560145
    13  H    4.038863   6.215356   5.522701   3.760661   1.082207
    14  H    4.569244   6.215356   4.741119   2.473975   1.082207
    15  H    3.444468   1.082207   2.473975   4.741119   6.215356
    16  H    2.701627   1.082207   3.760661   5.522701   6.215356
                   11         12         13         14         15
    11  H    0.000000
    12  H    2.437686   0.000000
    13  H    2.473975   4.741119   0.000000
    14  H    3.760661   5.522701   1.847272   0.000000
    15  H    5.522701   3.760661   6.959944   6.710320   0.000000
    16  H    4.741119   2.473975   6.710320   6.959944   1.847272
                   16
    16  H    0.000000
 Symmetry turned off by external request.
 Stoichiometry    C8H8
 Framework group  D2H[C2"(CC.CC),SG(C4H8)]
 Deg. of freedom     8
 Full point group                 D2H     NOp   8
 Rotational constants (GHZ):           5.2783212           1.6305618           1.2457338
 Leave Link  202 at Tue Jan 14 13:31:04 2025, MaxMem=   104857600 cpu:               0.0 elap:               0.0
 (Enter /sw/cluster/pub/apps//g16/l301.exe)
 Standard basis: def2TZVP (5D, 7F)
 Ernie: Thresh=  0.10000D-02 Tol=  0.10000D-05 Strict=F.
   296 basis functions,   472 primitive gaussians,   336 cartesian basis functions
    28 alpha electrons       28 beta electrons
       nuclear repulsion energy       322.2188698950 Hartrees.
 IExCor=  402 DFT=T Ex+Corr=B3LYP ExCW=0 ScaHFX=  0.200000
 ScaDFX=  0.800000  0.720000  1.000000  0.810000 ScalE2=  1.000000  1.000000
 IRadAn=      5 IRanWt=     -1 IRanGd=            0 ICorTp=0 IEmpDi=  4
 NAtoms=   16 NActive=   16 NUniq=   16 SFac= 1.00D+00 NAtFMM=   60 NAOKFM=F Big=F
 Integral buffers will be    131072 words long.
 Raffenetti 2 integral format.
 Two-electron integral symmetry is turned off.
 Leave Link  301 at Tue Jan 14 13:31:04 2025, MaxMem=   104857600 cpu:               0.0 elap:               0.0
 (Enter /sw/cluster/pub/apps//g16/l302.exe)
 NPDir=0 NMtPBC=     1 NCelOv=     1 NCel=       1 NClECP=     1 NCelD=      1
         NCelK=      1 NCelE2=     1 NClLst=     1 CellRange=     0.0.
 One-electron integrals computed using PRISM.
   1 Symmetry operations used in ECPInt.
 ECPInt:  NShTT=    7260 NPrTT=   21936 LenC2=    7103 LenP2D=   17317.
 LDataN:  DoStor=T MaxTD1= 6 Len=  172
 NBasis=   296 RedAO= T EigKep=  8.97D-06  NBF=   296
 NBsUse=   296 1.00D-06 EigRej= -1.00D+00 NBFU=   296
 Precomputing XC quadrature grid using
 IXCGrd= 4 IRadAn=           5 IRanWt=          -1 IRanGd=           0 AccXCQ= 0.00D+00.
 Generated NRdTot=       0 NPtTot=           0 NUsed=           0 NTot=          32
 NSgBfM=   334   334   334   334   334 MxSgAt=    16 MxSgA2=    16.
 Leave Link  302 at Tue Jan 14 13:31:04 2025, MaxMem=   104857600 cpu:               0.2 elap:               0.2
 (Enter /sw/cluster/pub/apps//g16/l303.exe)
 DipDrv:  MaxL=1.
 Leave Link  303 at Tue Jan 14 13:31:04 2025, MaxMem=   104857600 cpu:               0.0 elap:               0.0
 (Enter /sw/cluster/pub/apps//g16/l401.exe)
 ExpMin= 9.52D-02 ExpMax= 1.36D+04 ExpMxC= 4.63D+02 IAcc=3 IRadAn=         5 AccDes= 0.00D+00
 Harris functional with IExCor=  402 and IRadAn=       5 diagonalized for initial guess.
 HarFok:  IExCor=  402 AccDes= 0.00D+00 IRadAn=         5 IDoV= 1 UseB2=F ITyADJ=14
 ICtDFT=  3500011 ScaDFX=  1.000000  1.000000  1.000000  1.000000
 FoFCou: FMM=F IPFlag=           0 FMFlag=      100000 FMFlg1=           0
         NFxFlg=           0 DoJE=T BraDBF=F KetDBF=T FulRan=T
         wScrn=  0.000000 ICntrl=       500 IOpCl=  0 I1Cent=   200000004 NGrid=           0
         NMat0=    1 NMatS0=      1 NMatT0=    0 NMatD0=    1 NMtDS0=    0 NMtDT0=    0
 Symmetry not used in FoFCou.
 Harris En= -309.799117813569    
 JPrj=0 DoOrth=F DoCkMO=F.
 Leave Link  401 at Tue Jan 14 13:31:07 2025, MaxMem=   104857600 cpu:               2.8 elap:               2.8
 (Enter /sw/cluster/pub/apps//g16/l502.exe)
 Two-electron integral symmetry not used.
 Closed shell SCF:
 Using DIIS extrapolation, IDIIS=  1040.
 NGot=   104857600 LenX=   104627476 LenY=   104514139
 Requested convergence on RMS density matrix=1.00D-08 within 128 cycles.
 Requested convergence on MAX density matrix=1.00D-06.
 Requested convergence on             energy=1.00D-06.
 No special actions if energy rises.
 Fock matrices will be formed incrementally for  20 cycles.
 Integral accuracy reduced to 1.0D-05 until final iterations.

 Cycle   1  Pass 0  IDiag  1:
 FoFJK:  IHMeth= 1 ICntrl=       0 DoSepK=F KAlg= 0 I1Cent=           0 FoldK=F
 IRaf= 950000000 NMat=       1 IRICut=       1 DoRegI=T DoRafI=F ISym2E= 0 IDoP0=0 IntGTp=1.
 FoFCou: FMM=F IPFlag=           0 FMFlag=      100000 FMFlg1=           0
         NFxFlg=           0 DoJE=F BraDBF=F KetDBF=F FulRan=T
         wScrn=  0.000000 ICntrl=         0 IOpCl=  0 I1Cent=           0 NGrid=           0
         NMat0=    1 NMatS0=      1 NMatT0=    0 NMatD0=    1 NMtDS0=    0 NMtDT0=    0
 Symmetry not used in FoFCou.
 E= -309.501998231097    
 DIIS: error= 4.37D-02 at cycle   1 NSaved=   1.
 NSaved= 1 IEnMin= 1 EnMin= -309.501998231097     IErMin= 1 ErrMin= 4.37D-02
 ErrMax= 4.37D-02  0.00D+00 EMaxC= 1.00D-01 BMatC= 2.25D-01 BMatP= 2.25D-01
 IDIUse=3 WtCom= 5.63D-01 WtEn= 4.37D-01
 Coeff-Com:  0.100D+01
 Coeff-En:   0.100D+01
 Coeff:      0.100D+01
 Gap=     0.137 Goal=   None    Shift=    0.000
 GapD=    0.137 DampG=1.000 DampE=0.500 DampFc=0.5000 IDamp=-1.
 Damping current iteration by 5.00D-01
 RMSDP=2.83D-03 MaxDP=7.94D-02              OVMax= 1.98D-01

 Cycle   2  Pass 0  IDiag  1:
 RMSU=  1.36D-03    CP:  9.55D-01
 E= -309.610760957342     Delta-E=       -0.108762726245 Rises=F Damp=T
 DIIS: error= 6.77D-03 at cycle   2 NSaved=   2.
 NSaved= 2 IEnMin= 2 EnMin= -309.610760957342     IErMin= 2 ErrMin= 6.77D-03
 ErrMax= 6.77D-03  0.00D+00 EMaxC= 1.00D-01 BMatC= 1.01D-02 BMatP= 2.25D-01
 IDIUse=3 WtCom= 9.32D-01 WtEn= 6.77D-02
 Coeff-Com: -0.144D-01 0.101D+01
 Coeff-En:   0.276D-01 0.972D+00
 Coeff:     -0.116D-01 0.101D+01
 Gap=     0.139 Goal=   None    Shift=    0.000
 RMSDP=8.31D-04 MaxDP=2.09D-02 DE=-1.09D-01 OVMax= 1.18D-01

 Cycle   3  Pass 0  IDiag  1:
 RMSU=  7.99D-04    CP:  9.47D-01  8.39D-01
 E= -309.727719932945     Delta-E=       -0.116958975602 Rises=F Damp=F
 DIIS: error= 1.02D-02 at cycle   3 NSaved=   3.
 NSaved= 3 IEnMin= 3 EnMin= -309.727719932945     IErMin= 2 ErrMin= 6.77D-03
 ErrMax= 1.02D-02  0.00D+00 EMaxC= 1.00D-01 BMatC= 6.83D-03 BMatP= 1.01D-02
 IDIUse=3 WtCom= 8.98D-01 WtEn= 1.02D-01
 Coeff-Com: -0.491D-01 0.457D+00 0.592D+00
 Coeff-En:   0.000D+00 0.000D+00 0.100D+01
 Coeff:     -0.441D-01 0.410D+00 0.634D+00
 Gap=     0.138 Goal=   None    Shift=    0.000
 RMSDP=3.22D-04 MaxDP=1.03D-02 DE=-1.17D-01 OVMax= 5.87D-02

 Cycle   4  Pass 0  IDiag  1:
 RMSU=  2.38D-04    CP:  9.44D-01  9.41D-01  7.95D-01
 E= -309.731031387250     Delta-E=       -0.003311454306 Rises=F Damp=F
 DIIS: error= 8.61D-03 at cycle   4 NSaved=   4.
 NSaved= 4 IEnMin= 4 EnMin= -309.731031387250     IErMin= 2 ErrMin= 6.77D-03
 ErrMax= 8.61D-03  0.00D+00 EMaxC= 1.00D-01 BMatC= 4.09D-03 BMatP= 6.83D-03
 IDIUse=3 WtCom= 9.14D-01 WtEn= 8.61D-02
 Coeff-Com: -0.337D-01 0.136D+00 0.440D+00 0.458D+00
 Coeff-En:   0.000D+00 0.000D+00 0.379D+00 0.621D+00
 Coeff:     -0.308D-01 0.124D+00 0.434D+00 0.472D+00
 Gap=     0.137 Goal=   None    Shift=    0.000
 RMSDP=1.45D-04 MaxDP=6.86D-03 DE=-3.31D-03 OVMax= 3.04D-02

 Cycle   5  Pass 0  IDiag  1:
 RMSU=  7.07D-05    CP:  9.44D-01  9.25D-01  8.65D-01  5.29D-01
 E= -309.735076998693     Delta-E=       -0.004045611443 Rises=F Damp=F
 DIIS: error= 1.02D-03 at cycle   5 NSaved=   5.
 NSaved= 5 IEnMin= 5 EnMin= -309.735076998693     IErMin= 5 ErrMin= 1.02D-03
 ErrMax= 1.02D-03  0.00D+00 EMaxC= 1.00D-01 BMatC= 8.66D-05 BMatP= 4.09D-03
 IDIUse=3 WtCom= 9.90D-01 WtEn= 1.02D-02
 Coeff-Com: -0.998D-02 0.252D-01 0.147D+00 0.214D+00 0.624D+00
 Coeff-En:   0.000D+00 0.000D+00 0.000D+00 0.000D+00 0.100D+01
 Coeff:     -0.988D-02 0.250D-01 0.145D+00 0.211D+00 0.628D+00
 Gap=     0.138 Goal=   None    Shift=    0.000
 RMSDP=3.35D-05 MaxDP=1.00D-03 DE=-4.05D-03 OVMax= 4.31D-03

 Cycle   6  Pass 0  IDiag  1:
 RMSU=  2.06D-05    CP:  9.44D-01  9.29D-01  8.74D-01  5.86D-01  7.09D-01
 E= -309.735160552112     Delta-E=       -0.000083553419 Rises=F Damp=F
 DIIS: error= 2.16D-04 at cycle   6 NSaved=   6.
 NSaved= 6 IEnMin= 6 EnMin= -309.735160552112     IErMin= 6 ErrMin= 2.16D-04
 ErrMax= 2.16D-04  0.00D+00 EMaxC= 1.00D-01 BMatC= 7.82D-06 BMatP= 8.66D-05
 IDIUse=3 WtCom= 9.98D-01 WtEn= 2.16D-03
 Coeff-Com: -0.319D-02 0.493D-02 0.519D-01 0.827D-01 0.334D+00 0.529D+00
 Coeff-En:   0.000D+00 0.000D+00 0.000D+00 0.000D+00 0.000D+00 0.100D+01
 Coeff:     -0.318D-02 0.492D-02 0.518D-01 0.825D-01 0.334D+00 0.530D+00
 Gap=     0.138 Goal=   None    Shift=    0.000
 RMSDP=7.28D-06 MaxDP=2.25D-04 DE=-8.36D-05 OVMax= 7.40D-04

 Initial convergence to 1.0D-05 achieved.  Increase integral accuracy.
 Cycle   7  Pass 1  IDiag  1:
 E= -309.735176294987     Delta-E=       -0.000015742874 Rises=F Damp=F
 DIIS: error= 1.27D-04 at cycle   1 NSaved=   1.
 NSaved= 1 IEnMin= 1 EnMin= -309.735176294987     IErMin= 1 ErrMin= 1.27D-04
 ErrMax= 1.27D-04  0.00D+00 EMaxC= 1.00D-01 BMatC= 1.71D-06 BMatP= 1.71D-06
 IDIUse=3 WtCom= 9.99D-01 WtEn= 1.27D-03
 Coeff-Com:  0.100D+01
 Coeff-En:   0.100D+01
 Coeff:      0.100D+01
 Gap=     0.138 Goal=   None    Shift=    0.000
 RMSDP=7.28D-06 MaxDP=2.25D-04 DE=-1.57D-05 OVMax= 2.12D-04

 Cycle   8  Pass 1  IDiag  1:
 RMSU=  1.10D-04    CP:  1.00D+00
 E= -309.735176772830     Delta-E=       -0.000000477844 Rises=F Damp=F
 DIIS: error= 4.37D-05 at cycle   2 NSaved=   2.
 NSaved= 2 IEnMin= 2 EnMin= -309.735176772830     IErMin= 2 ErrMin= 4.37D-05
 ErrMax= 4.37D-05  0.00D+00 EMaxC= 1.00D-01 BMatC= 1.89D-07 BMatP= 1.71D-06
 IDIUse=1 WtCom= 1.00D+00 WtEn= 0.00D+00
 Coeff-Com:  0.150D+00 0.850D+00
 Coeff:      0.150D+00 0.850D+00
 Gap=     0.138 Goal=   None    Shift=    0.000
 RMSDP=2.62D-06 MaxDP=8.75D-05 DE=-4.78D-07 OVMax= 3.00D-04

 Cycle   9  Pass 1  IDiag  1:
 RMSU=  2.24D-06    CP:  1.00D+00  1.01D+00
 E= -309.735176721114     Delta-E=        0.000000051717 Rises=F Damp=F
 DIIS: error= 4.39D-05 at cycle   3 NSaved=   3.
 NSaved= 3 IEnMin= 2 EnMin= -309.735176772830     IErMin= 2 ErrMin= 4.37D-05
 ErrMax= 4.39D-05  0.00D+00 EMaxC= 1.00D-01 BMatC= 2.43D-07 BMatP= 1.89D-07
 IDIUse=1 WtCom= 1.00D+00 WtEn= 0.00D+00
 Coeff-Com:  0.820D-02 0.530D+00 0.462D+00
 Coeff:      0.820D-02 0.530D+00 0.462D+00
 Gap=     0.138 Goal=   None    Shift=    0.000
 RMSDP=1.19D-06 MaxDP=5.06D-05 DE= 5.17D-08 OVMax= 1.95D-04

 Cycle  10  Pass 1  IDiag  1:
 RMSU=  5.20D-07    CP:  1.00D+00  1.01D+00  5.39D-01
 E= -309.735176944789     Delta-E=       -0.000000223675 Rises=F Damp=F
 DIIS: error= 1.42D-05 at cycle   4 NSaved=   4.
 NSaved= 4 IEnMin= 4 EnMin= -309.735176944789     IErMin= 4 ErrMin= 1.42D-05
 ErrMax= 1.42D-05  0.00D+00 EMaxC= 1.00D-01 BMatC= 9.82D-09 BMatP= 1.89D-07
 IDIUse=1 WtCom= 1.00D+00 WtEn= 0.00D+00
 Coeff-Com: -0.517D-03 0.297D+00 0.280D+00 0.424D+00
 Coeff:     -0.517D-03 0.297D+00 0.280D+00 0.424D+00
 Gap=     0.138 Goal=   None    Shift=    0.000
 RMSDP=2.28D-07 MaxDP=9.56D-06 DE=-2.24D-07 OVMax= 4.54D-05

 Cycle  11  Pass 1  IDiag  1:
 RMSU=  1.85D-07    CP:  1.00D+00  1.01D+00  5.62D-01  7.68D-01
 E= -309.735176954218     Delta-E=       -0.000000009430 Rises=F Damp=F
 DIIS: error= 2.00D-06 at cycle   5 NSaved=   5.
 NSaved= 5 IEnMin= 5 EnMin= -309.735176954218     IErMin= 5 ErrMin= 2.00D-06
 ErrMax= 2.00D-06  0.00D+00 EMaxC= 1.00D-01 BMatC= 3.29D-10 BMatP= 9.82D-09
 IDIUse=1 WtCom= 1.00D+00 WtEn= 0.00D+00
 Coeff-Com: -0.686D-03 0.120D+00 0.113D+00 0.232D+00 0.536D+00
 Coeff:     -0.686D-03 0.120D+00 0.113D+00 0.232D+00 0.536D+00
 Gap=     0.138 Goal=   None    Shift=    0.000
 RMSDP=5.94D-08 MaxDP=1.60D-06 DE=-9.43D-09 OVMax= 8.19D-06

 Cycle  12  Pass 1  IDiag  1:
 RMSU=  4.33D-08    CP:  1.00D+00  1.02D+00  5.52D-01  7.90D-01  8.28D-01
 E= -309.735176954600     Delta-E=       -0.000000000382 Rises=F Damp=F
 DIIS: error= 6.28D-08 at cycle   6 NSaved=   6.
 NSaved= 6 IEnMin= 6 EnMin= -309.735176954600     IErMin= 6 ErrMin= 6.28D-08
 ErrMax= 6.28D-08  0.00D+00 EMaxC= 1.00D-01 BMatC= 3.38D-13 BMatP= 3.29D-10
 IDIUse=1 WtCom= 1.00D+00 WtEn= 0.00D+00
 Coeff-Com: -0.398D-04 0.442D-02 0.360D-02 0.120D-01 0.392D-01 0.941D+00
 Coeff:     -0.398D-04 0.442D-02 0.360D-02 0.120D-01 0.392D-01 0.941D+00
 Gap=     0.138 Goal=   None    Shift=    0.000
 RMSDP=5.91D-09 MaxDP=1.48D-07 DE=-3.82D-10 OVMax= 3.45D-07

 SCF Done:  E(RB3LYP) =  -309.735176955     A.U. after   12 cycles
            NFock= 12  Conv=0.59D-08     -V/T= 2.0054
 KE= 3.080862600747D+02 PE=-1.362109898494D+03 EE= 4.220695915694D+02
 Leave Link  502 at Tue Jan 14 13:32:57 2025, MaxMem=   104857600 cpu:             109.9 elap:             110.2
 (Enter /sw/cluster/pub/apps//g16/l601.exe)
 Copying SCF densities to generalized density rwf, IOpCl= 0 IROHF=0.

 **********************************************************************

            Population analysis using the SCF density.

 **********************************************************************

 Alpha  occ. eigenvalues --  -10.19208 -10.19206 -10.18166 -10.18163 -10.18083
 Alpha  occ. eigenvalues --  -10.18083 -10.17357 -10.17356  -0.86578  -0.79835
 Alpha  occ. eigenvalues --   -0.76058  -0.72407  -0.62802  -0.61070  -0.57772
 Alpha  occ. eigenvalues --   -0.50065  -0.49154  -0.47150  -0.43317  -0.42078
 Alpha  occ. eigenvalues --   -0.41729  -0.38582  -0.38058  -0.37992  -0.33114
 Alpha  occ. eigenvalues --   -0.31266  -0.27431  -0.21018
 Alpha virt. eigenvalues --   -0.07237  -0.00815   0.03303   0.05262   0.06316
 Alpha virt. eigenvalues --    0.06455   0.09201   0.09761   0.12340   0.12408
 Alpha virt. eigenvalues --    0.12656   0.13652   0.14062   0.14865   0.18188
 Alpha virt. eigenvalues --    0.19316   0.19846   0.21240   0.23513   0.24022
 Alpha virt. eigenvalues --    0.24490   0.25981   0.26891   0.27603   0.28274
 Alpha virt. eigenvalues --    0.28708   0.31092   0.31900   0.32756   0.32892
 Alpha virt. eigenvalues --    0.33363   0.34472   0.35027   0.35891   0.38705
 Alpha virt. eigenvalues --    0.40781   0.41901   0.42247   0.43124   0.45493
 Alpha virt. eigenvalues --    0.45529   0.45662   0.47613   0.47841   0.51881
 Alpha virt. eigenvalues --    0.52608   0.52892   0.54117   0.54242   0.54310
 Alpha virt. eigenvalues --    0.57094   0.58291   0.58506   0.63190   0.64604
 Alpha virt. eigenvalues --    0.64818   0.66671   0.68403   0.72437   0.72509
 Alpha virt. eigenvalues --    0.74593   0.75187   0.75373   0.77168   0.77449
 Alpha virt. eigenvalues --    0.81271   0.84344   0.84459   0.84894   0.87150
 Alpha virt. eigenvalues --    0.89285   0.93934   0.93966   0.94998   0.96303
 Alpha virt. eigenvalues --    1.02193   1.02911   1.05097   1.05331   1.05404
 Alpha virt. eigenvalues --    1.07050   1.10640   1.16945   1.18243   1.19921
 Alpha virt. eigenvalues --    1.20689   1.21109   1.22837   1.23754   1.25562
 Alpha virt. eigenvalues --    1.28365   1.31029   1.33525   1.34455   1.34989
 Alpha virt. eigenvalues --    1.36644   1.39137   1.47052   1.48046   1.48790
 Alpha virt. eigenvalues --    1.51817   1.53510   1.55068   1.56988   1.58532
 Alpha virt. eigenvalues --    1.58792   1.59163   1.60048   1.60992   1.62200
 Alpha virt. eigenvalues --    1.63817   1.65534   1.66484   1.68447   1.68938
 Alpha virt. eigenvalues --    1.70822   1.80526   1.80618   1.83179   1.83255
 Alpha virt. eigenvalues --    1.84604   1.85814   1.86745   1.89064   1.96538
 Alpha virt. eigenvalues --    1.98591   1.98887   2.03304   2.04490   2.05888
 Alpha virt. eigenvalues --    2.08914   2.11702   2.13029   2.15026   2.17705
 Alpha virt. eigenvalues --    2.22911   2.24631   2.27179   2.30663   2.30788
 Alpha virt. eigenvalues --    2.33736   2.35804   2.43034   2.44327   2.48559
 Alpha virt. eigenvalues --    2.48683   2.49644   2.50110   2.51309   2.55344
 Alpha virt. eigenvalues --    2.58483   2.60136   2.63814   2.64856   2.66275
 Alpha virt. eigenvalues --    2.69916   2.70654   2.71988   2.72264   2.72841
 Alpha virt. eigenvalues --    2.73302   2.73651   2.79022   2.79266   2.80891
 Alpha virt. eigenvalues --    2.81147   2.82344   2.88169   2.88752   2.88861
 Alpha virt. eigenvalues --    2.92369   2.92483   2.97268   2.98308   2.99574
 Alpha virt. eigenvalues --    3.00497   3.01211   3.04576   3.06467   3.09538
 Alpha virt. eigenvalues --    3.10091   3.10995   3.12508   3.12535   3.13636
 Alpha virt. eigenvalues --    3.15412   3.15645   3.15996   3.20819   3.21411
 Alpha virt. eigenvalues --    3.21878   3.21941   3.22317   3.23005   3.23363
 Alpha virt. eigenvalues --    3.32949   3.35304   3.35807   3.36584   3.36895
 Alpha virt. eigenvalues --    3.37012   3.37429   3.38589   3.41522   3.42326
 Alpha virt. eigenvalues --    3.42728   3.44235   3.44789   3.50818   3.51229
 Alpha virt. eigenvalues --    3.55039   3.60638   3.63024   3.64793   3.68308
 Alpha virt. eigenvalues --    3.69467   3.73126   3.75160   3.78124   3.80059
 Alpha virt. eigenvalues --    3.87030   3.90077   3.91118   3.92327   3.93170
 Alpha virt. eigenvalues --    4.03202   4.03368   4.04189   4.09813   4.09867
 Alpha virt. eigenvalues --    4.10881   4.15672   4.19025   4.21711   4.28018
 Alpha virt. eigenvalues --    4.28472   4.31048   4.31664   4.37950   4.44320
 Alpha virt. eigenvalues --    4.54388   4.58988   4.63487   4.64711   4.66082
 Alpha virt. eigenvalues --    4.68689   4.69642   4.77306   4.77472   4.87659
 Alpha virt. eigenvalues --    4.90202   4.90956   5.06133   5.08134   5.26298
 Alpha virt. eigenvalues --    5.32323   5.40299   5.42480   5.56900   5.74797
 Alpha virt. eigenvalues --   21.96114  22.41693  22.47913  22.50460  22.79586
 Alpha virt. eigenvalues --   22.81892  22.88627  23.30119
          Condensed to atoms (all electrons):
               1          2          3          4          5          6
     1  C    4.763822   0.374235  -0.021150  -0.034632  -0.021150   0.374235
     2  C    0.374235   4.991893   0.589353  -0.021150  -0.030559  -0.044448
     3  C   -0.021150   0.589353   4.991893   0.374235  -0.044448  -0.030559
     4  C   -0.034632  -0.021150   0.374235   4.763822   0.374235  -0.021150
     5  C   -0.021150  -0.030559  -0.044448   0.374235   4.991893   0.589353
     6  C    0.374235  -0.044448  -0.030559  -0.021150   0.589353   4.991893
     7  C    0.550494  -0.075612   0.001351   0.000934   0.001351  -0.075612
     8  H   -0.053445   0.417824  -0.042914   0.009118  -0.001963   0.010040
     9  H    0.009118  -0.042914   0.417824  -0.053445   0.010040  -0.001963
    10  C    0.000934   0.001351  -0.075612   0.550494  -0.075612   0.001351
    11  H    0.009118  -0.001963   0.010040  -0.053445   0.417824  -0.042914
    12  H   -0.053445   0.010040  -0.001963   0.009118  -0.042914   0.417824
    13  H    0.000073  -0.000698   0.009387  -0.045246  -0.009246   0.000845
    14  H    0.000073   0.000845  -0.009246  -0.045246   0.009387  -0.000698
    15  H   -0.045246  -0.009246   0.000845   0.000073  -0.000698   0.009387
    16  H   -0.045246   0.009387  -0.000698   0.000073   0.000845  -0.009246
               7          8          9         10         11         12
     1  C    0.550494  -0.053445   0.009118   0.000934   0.009118  -0.053445
     2  C   -0.075612   0.417824  -0.042914   0.001351  -0.001963   0.010040
     3  C    0.001351  -0.042914   0.417824  -0.075612   0.010040  -0.001963
     4  C    0.000934   0.009118  -0.053445   0.550494  -0.053445   0.009118
     5  C    0.001351  -0.001963   0.010040  -0.075612   0.417824  -0.042914
     6  C   -0.075612   0.010040  -0.001963   0.001351  -0.042914   0.417824
     7  C    5.062838  -0.001948  -0.000429   0.000264  -0.000429  -0.001948
     8  H   -0.001948   0.568622  -0.010614  -0.000429   0.000103  -0.000375
     9  H   -0.000429  -0.010614   0.568622  -0.001948  -0.000375   0.000103
    10  C    0.000264  -0.000429  -0.001948   5.062838  -0.001948  -0.000429
    11  H   -0.000429   0.000103  -0.000375  -0.001948   0.568622  -0.010614
    12  H   -0.001948  -0.000375   0.000103  -0.000429  -0.010614   0.568622
    13  H   -0.000002   0.000023  -0.000283   0.411851   0.005490  -0.000068
    14  H   -0.000002  -0.000068   0.005490   0.411851  -0.000283   0.000023
    15  H    0.411851   0.005490  -0.000068  -0.000002   0.000023  -0.000283
    16  H    0.411851  -0.000283   0.000023  -0.000002  -0.000068   0.005490
              13         14         15         16
     1  C    0.000073   0.000073  -0.045246  -0.045246
     2  C   -0.000698   0.000845  -0.009246   0.009387
     3  C    0.009387  -0.009246   0.000845  -0.000698
     4  C   -0.045246  -0.045246   0.000073   0.000073
     5  C   -0.009246   0.009387  -0.000698   0.000845
     6  C    0.000845  -0.000698   0.009387  -0.009246
     7  C   -0.000002  -0.000002   0.411851   0.411851
     8  H    0.000023  -0.000068   0.005490  -0.000283
     9  H   -0.000283   0.005490  -0.000068   0.000023
    10  C    0.411851   0.411851  -0.000002  -0.000002
    11  H    0.005490  -0.000283   0.000023  -0.000068
    12  H   -0.000068   0.000023  -0.000283   0.005490
    13  H    0.545755  -0.031770   0.000000  -0.000000
    14  H   -0.031770   0.545755  -0.000000   0.000000
    15  H    0.000000  -0.000000   0.545755  -0.031770
    16  H   -0.000000   0.000000  -0.031770   0.545755
 Mulliken charges:
               1
     1  C    0.192213
     2  C   -0.168337
     3  C   -0.168337
     4  C    0.192213
     5  C   -0.168337
     6  C   -0.168337
     7  C   -0.284950
     8  H    0.100817
     9  H    0.100817
    10  C   -0.284950
    11  H    0.100817
    12  H    0.100817
    13  H    0.113888
    14  H    0.113888
    15  H    0.113888
    16  H    0.113888
 Sum of Mulliken charges =  -0.00000
 Mulliken charges with hydrogens summed into heavy atoms:
               1
     1  C    0.192213
     2  C   -0.067520
     3  C   -0.067520
     4  C    0.192213
     5  C   -0.067520
     6  C   -0.067520
     7  C   -0.057174
    10  C   -0.057174
 Electronic spatial extent (au):  <R**2>=            958.5084
 Charge=             -0.0000 electrons
 Dipole moment (field-independent basis, Debye):
    X=              0.0000    Y=             -0.0000    Z=              0.0000  Tot=              0.0000
 Quadrupole moment (field-independent basis, Debye-Ang):
   XX=            -42.9839   YY=            -44.1524   ZZ=            -53.2689
   XY=              0.0000   XZ=              0.0000   YZ=              0.0000
 Traceless Quadrupole moment (field-independent basis, Debye-Ang):
   XX=              3.8179   YY=              2.6493   ZZ=             -6.4672
   XY=              0.0000   XZ=              0.0000   YZ=              0.0000
 Octapole moment (field-independent basis, Debye-Ang**2):
  XXX=              0.0000  YYY=              0.0000  ZZZ=              0.0000  XYY=              0.0000
  XXY=             -0.0000  XXZ=              0.0000  XZZ=              0.0000  YZZ=             -0.0000
  YYZ=             -0.0000  XYZ=              0.0000
 Hexadecapole moment (field-independent basis, Debye-Ang**3):
 XXXX=           -313.2987 YYYY=           -917.3157 ZZZZ=            -64.4902 XXXY=             -0.0000
 XXXZ=              0.0000 YYYX=             -0.0000 YYYZ=              0.0000 ZZZX=              0.0000
 ZZZY=              0.0000 XXYY=           -190.6239 XXZZ=            -74.4960 YYZZ=           -193.8210
 XXYZ=              0.0000 YYXZ=             -0.0000 ZZXY=             -0.0000
 N-N= 3.222188698950D+02 E-N=-1.362109908497D+03  KE= 3.080862600747D+02
 No NMR shielding tensors so no spin-rotation constants.
 Leave Link  601 at Tue Jan 14 13:32:57 2025, MaxMem=   104857600 cpu:               0.1 elap:               0.1
 (Enter /sw/cluster/pub/apps//g16/l9999.exe)
 1\1\GINC-N02\SP\RB3LYP\def2TZVP\C8H8\UNKNOWN\14-Jan-2025\0\\#P B3LYP/d
 ef2tzvp nosymm Density=Current\\Single-Point\\0,1\C,0,0.,1.44255674,0.
 \C,0,1.23576101,0.67162412,0.\C,0,1.23576101,-0.67162412,0.\C,0,0.,-1.
 44255674,0.\C,0,-1.23576101,-0.67162412,0.\C,0,-1.23576101,0.67162412,
 0.\C,0,0.,2.7911841,0.\H,0,2.17131457,1.21884313,0.\H,0,2.17131457,-1.
 21884313,0.\C,0,0.,-2.7911841,0.\H,0,-2.17131457,-1.21884313,0.\H,0,-2
 .17131457,1.21884313,0.\H,0,-0.92363598,-3.35516023,0.\H,0,0.92363598,
 -3.35516023,0.\H,0,0.92363598,3.35516023,0.\H,0,-0.92363598,3.35516023
 ,0.\\Version=ES64L-G16RevA.03\HF=-309.735177\RMSD=5.907e-09\Dipole=0.,
 0.,0.\Quadrupole=2.8384971,1.9696962,-4.8081933,0.,0.,0.\PG=D02H [C2"(
 C1C1.C1C1),SG(C4H8)]\\@


 It takes a long time to grow an old friend.
                            -- John Leonard
 Job cpu time:       0 days  0 hours  1 minutes 53.1 seconds.
 Elapsed time:       0 days  0 hours  1 minutes 53.4 seconds.
 File lengths (MBytes):  RWF=     52 Int=      0 D2E=      0 Chk=      6 Scr=      1
 Normal termination of Gaussian 16 at Tue Jan 14 13:32:58 2025.
