
                                 *****************
                                 * O   R   C   A *
                                 *****************

                                            #,                                       
                                            ###                                      
                                            ####                                     
                                            #####                                    
                                            ######                                   
                                           ########,                                 
                                     ,,################,,,,,                         
                               ,,#################################,,                 
                          ,,##########################################,,             
                       ,#########################################, ''#####,          
                    ,#############################################,,   '####,        
                  ,##################################################,,,,####,       
                ,###########''''           ''''###############################       
              ,#####''   ,,,,##########,,,,          '''####'''          '####       
            ,##' ,,,,###########################,,,                        '##       
           ' ,,###''''                  '''############,,,                           
         ,,##''                                '''############,,,,        ,,,,,,###''
      ,#''                                            '''#######################'''  
     '                                                          ''''####''''         
             ,#######,   #######,   ,#######,      ##                                
            ,#'     '#,  ##    ##  ,#'     '#,    #''#        ,####,   ,####,        
            ##       ##  ##   ,#'  ##            #'  '#       #'       #'  '#        
            ##       ##  #######   ##           ,######,      #####,   #    #        
            '#,     ,#'  ##    ##  '#,     ,#' ,#      #,     #,   #   #,  ,#        
             '#######'   ##     ##  '#######'  #'      '#     '####' # '####'        



                #########################################################
                #                        -***-                          #
                #          Department of theory and spectroscopy        #
                #                                                       #
                #                      Frank Neese                      #
                #                                                       #
                #     Directorship, Architecture, Infrastructure        #
                #                    SHARK, DRIVERS                     #
                #        Core code/Algorithms in most modules           #
                #                                                       #
                #        Max Planck Institute fuer Kohlenforschung      #
                #                Kaiser Wilhelm Platz 1                 #
                #                 D-45470 Muelheim/Ruhr                 #
                #                      Germany                          #
                #                                                       #
                #                  All rights reserved                  #
                #                        -***-                          #
                #########################################################


                         Program Version 6.0.1  -  RELEASE   -


 With contributions from (in alphabetic order):
[Max-Planck-Institut fuer Kohlenforschung]                               
  Daniel Aravena         : Magnetic Suceptibility                        
  Michael Atanasov       : Ab Initio Ligand Field Theory (pilot matlab implementation)
  Alexander A. Auer      : GIAO ZORA, VPT2 properties, NMR spectrum      
  Ute Becker             : All parallelization in ORCA, NUMFREQ, NUMCALC 
  Giovanni Bistoni       : ED, misc. LED, open-shell LED, HFLD           
  Martin Brehm           : Molecular dynamics                            
  Dmytro Bykov           : pre 5.0 version of the SCF Hessian            
  Marcos Casanova-Páez   : Triplet and SCS-CIS(D). UHF-(DLPNO)-IP/EA/STEOM-CCSD. UHF-CVS-IP/STEOM-CCSD   
  Vijay G. Chilkuri      : MRCI spin determinant printing, contributions to CSF-ICE 
  Pauline Colinet        : FMM embedding                                 
  Dipayan Datta          : RHF DLPNO-CCSD density                        
  Achintya Kumar Dutta   : EOM-CC, STEOM-CC                              
  Nicolas Foglia         : Exact transition moments, OPA infrastructure, MCD improvements    
  Dmitry Ganyushin       : Spin-Orbit,Spin-Spin,Magnetic field MRCI      
  Miquel Garcia-Rates    : C-PCM and meta-GGA Hessian, CCSD/C-PCM, Gaussian charge scheme 
  Tiago L. C. Gouveia    : GS-ROHF, GS-ROCIS                             
  Yang Guo               : DLPNO-NEVPT2, F12-NEVPT2, CIM, IAO-localization        
  Andreas Hansen         : Spin unrestricted coupled pair/coupled cluster methods 
  Ingolf Harden          : AUTO-CI MPn and infrastructure                
  Benjamin Helmich-Paris : MC-RPA, TRAH-(SCF,CASSCF), AVAS, COSX integrals, SCF dyn. polar. 
  Lee Huntington         : MR-EOM, pCC                                   
  Robert Izsak           : Overlap fitted RIJCOSX, COSX-SCS-MP3, EOM     
  Riya Kayal             : Wick's Theorem for AUTO-CI, AUTO-CI UHF-CCSDT 
  Emily Kempfer          : AUTO-CI, RHF CISDT and CCSDT                  
  Christian Kollmar      : KDIIS, OOCD, Brueckner-CCSD(T), CCSD density, CASPT2, CASPT2-K, improved NEVPT2 
  Axel Koslowski         : Symmetry handling                             
  Simone Kossmann        : meta-GGA functionals, TD-DFT gradient, OOMP2, (MP2 Hessian; deprecated post 5.0) 
  Lucas Lang             : DCDCAS                                        
  Marvin Lechner         : AUTO-CI (C++ implementation), FIC-MRCC        
  Spencer Leger          : CASSCF response                               
  Dagmar Lenk            : GEPOL surface, SMD, ORCA-2-JSON               
  Dimitrios Liakos       : Extrapolation schemes; Compound Job, initial MDCI parallelization 
  Dimitrios Manganas     : Further ROCIS development; embedding schemes. LFT, Crystal Embedding 
  Dimitrios Pantazis     : SARC Basis sets                               
  Anastasios Papadopoulos: AUTO-CI, single reference methods and gradients 
  Taras Petrenko         : pre 6.0 DFT Hessian and TD-DFT gradient, (ASA, deprecated), ECA, 1-Electron XAS/XES, NRVS 
  Peter Pinski           : DLPNO-MP2, DLPNO-MP2 Gradient                 
  Christoph Reimann      : Effective Core Potentials                     
  Marius Retegan         : Local ZFS, SOC                                
  Christoph Riplinger    : Optimizer, TS searches, QM/MM, DLPNO-CCSD(T), (RO)-DLPNO pert. Triples 
  Michael Roemelt        : Original ROCIS implementation                 
  Masaaki Saitow         : Open-shell DLPNO-CCSD energy and density      
  Barbara Sandhoefer     : DKH picture change effects                    
  Kantharuban Sivalingam : CASSCF convergence/infrastructure, NEVPT2 and variants, FIC-MRCI 
  Bernardo de Souza      : ESD, SOC TD-DFT                               
  Georgi L. Stoychev     : AutoAux, RI-MP2 NMR, DLPNO-MP2 response, X2C  
  Van Anh Tran           : RI-MP2 g-tensors                              
  Willem Van den Heuvel  : Paramagnetic NMR                              
  Zikuan Wang            : NOTCH, Electric field optimization            
  Frank Wennmohs         : Technical directorship and infrastructure     
  Hang Xu                : AUTO-CI-Response properties                   
                                                                         
[FACCTs GmbH]                                                            
  Markus Bursch, Miquel Garcia-Rates, Christoph Riplinger, Bernardo de Souza, Georgi L. Stoychev 
                                                                 
  APM, Basis sets (HGBS, AHGBS, def-TZVP (Ac-Lr), def2-XVPD (La-Lu)), CI-OPT, improved COSX, DLPNO-Multilevel,           
  DOCKER, DRACO, updates on ESD, GOAT, IRC, LR-CPCM, MBIS, meta-GGA TD-DFT gradient, ML-optimized integration grids, 
  MM, NACMEs, nearIR, NEB, NEB-TS, NL-DFT gradient (VV10), 2- and 3-layer-ONIOM, interface openCOSMO-RS, QMMM,   
  Crystal-QMMM, SF, symmetry and pop. for TD-DFT, r2SCAN hybrids, SOLVATOR                                   
                                                                         
[Other institutions]                                                     
  V. Asgeirsson          : NEB                                           
  Christoph Bannwarth    : sTDA-DFT, sTD-DFT, PBEh-3c, B97-3c, D3        
  Sebastian Ehlert       : rSCAN, r2SCAN, r2SCAN-3c, D4, dhf basis sets  
  Marvin Friede          : D4 for Fr, Ra, Ac-Lr                          
  Lars Goerigk           : TD-DFT with DH, B97 family of functionals     
  Stefan Grimme          : VdW corrections, initial TS optimization, DFT functionals, gCP, sTDA/sTD-DF 
  Waldemar Hujo          : DFT-NL                                        
  H. Jonsson             : NEB                                           
  Holger Kruse           : gCP                                           
  Marcel Mueller         : wB97X-3c, vDZP basis set                      
  Hagen Neugebauer       : wr2SCAN                                       
  Tobias Risthaus        : range-separated hybrid DFT                    
  Lukas Wittmann         : regularized MP2, r2SCAN double-hybrids, wr2SCAN        
                                                                         
We gratefully acknowledge several colleagues who have allowed us to      
interface, adapt or use parts of their codes:                            
  Ed Valeev, F. Pavosevic, A. Kumar             : LibInt (2-el integral package), F12 methods 
  Garnet Chan, S. Sharma, J. Yang, R. Olivares  : DMRG                   
  Ulf Ekstrom                                   : XCFun DFT Library      
  Mihaly Kallay                                 : mrcc  (arbitrary order and MRCC methods)
  Frank Weinhold                                : gennbo (NPA and NBO analysis)           
  Simon Mueller                                 : openCOSMO-RS                            
  Christopher J. Cramer and Donald G. Truhlar   : smd solvation model                     
  S Lehtola, MJT Oliveira, MAL Marques          : LibXC Library                           
  Liviu Ungur et al                             : ANISO software                          


 Your calculation uses the libint2 library for the computation of 2-el integrals
 For citations please refer to: http://libint.valeyev.net

 Your ORCA version has been built with support for libXC version: 6.2.2
 For citations please refer to: https://libxc.gitlab.io

 This ORCA versions uses:
   CBLAS   interface :  Fast vector & matrix operations
   LAPACKE interface :  Fast linear algebra routines
   SCALAPACK package :  Parallel linear algebra routines
   Shared memory     :  Shared parallel matrices
   BLAS/LAPACK       :  OpenBLAS 0.3.27  USE64BITINT DYNAMIC_ARCH NO_AFFINITY Zen SINGLE_THREADED
        Core in use  :  Zen
   Copyright (c) 2011-2014, The OpenBLAS Project


================================================================================

----- Orbital basis set information -----
Your calculation utilizes the basis: def2-TZVP(-f)
   F. Weigend and R. Ahlrichs, Phys. Chem. Chem. Phys. 7, 3297 (2005).

----- AuxJ basis set information -----
Your calculation utilizes the auxiliary basis: def2/J
   F. Weigend, Phys. Chem. Chem. Phys. 8, 1057 (2006).

----- AuxC basis set information -----
Your calculation utilizes the auxiliary basis: def2-TZVP/C
  H-La, Hf-Rn : A. Hellweg, C. Hattig, S. Hofener and W. Klopper, Theor. Chem. Acc. 117, 587 (2007).
        Ce-Lu : J. Chmela and M. E. Harding, Mol. Phys. (2018).

================================================================================
                                        WARNINGS
                       Please study these warnings very carefully!
================================================================================

INFO   : Checking CIS options ...

WARNING: (CIS/TDDFT): Analytic excited state gradients requested
  ===> : turning on equilibrium dielectric conditions.

WARNING: Analytical Frequencies for this method not available!
  ===> : Switching to Numerical Frequencies!

WARNING: Geometry Optimization
  ===> : Switching off AutoStart
         For restart on a previous wavefunction, please use MOREAD

WARNING: CIS/ROCIS methods need fully converged wavefunctions
  ===> : Setting SCFConvForced true
         You can overwrite this default with %scf ConvForced false 


================================================================================
                                       INPUT FILE
================================================================================
NAME = hbqdcp-es.inp
|  1> ! B3LYP/G VERYTIGHTOPT FREQ Def2-TZVP(-f) Def2-TZVP/C Def2/J RIJCOSX TightSCF CPCM(Water) AllPop SOSCF
|  2> 
|  3> %tddft
|  4>     NRoots 3
|  5>     IRoot 1
|  6> end 
|  7> 
|  8> * xyz 1 1 
|  9>   C     -4.407140   -1.283900    1.663535
| 10>   C     -3.562134   -0.833223    0.495185
| 11>   C     -3.503543   -2.224811    1.103524
| 12>   C     -3.325179   -1.755231    2.589851
| 13>   C     -2.443893    0.104931    0.735672
| 14>   C     -1.793961    0.105923    1.961347
| 15>   O     -1.902122    0.825243   -0.273148
| 16>   C     -2.145701   -0.956037    2.878526
| 17>   C     -1.288086   -1.298390    3.926490
| 18>   C     -0.070792   -0.681892    4.077378
| 19>   C     -0.670381    0.941622    2.328725
| 20>   C      0.263608    0.444764    3.277509
| 21>   N     -0.439182    2.197023    1.802572
| 22>   C      0.769242    2.789395    1.930044
| 23>   C      1.786391    2.221042    2.671452
| 24>   C      1.505249    1.093319    3.407123
| 25>   C     -2.629270    1.178761   -1.420674
| 26>   O     -3.826985    1.379224   -1.379449
| 27>   N     -1.822014    1.293127   -2.480795
| 28>   C     -2.365738    1.803600   -3.735664
| 29>   C     -0.389741    1.003658   -2.484915
| 30>   H     -0.158502    0.413600   -3.372400
| 31>   H     -0.105831    0.441982   -1.603474
| 32>   H      0.182739    1.932925   -2.524336
| 33>   H     -3.412242    2.056217   -3.606581
| 34>   H     -2.266411    1.046044   -4.515088
| 35>   H     -1.809956    2.692999   -4.038106
| 36>   H     -3.598846   -2.505570    3.321032
| 37>   H     -4.072464   -0.753198   -0.450896
| 38>   H     -3.395601   -3.225616    0.713354
| 39>   H     -1.566667   -2.117424    4.577500
| 40>   H      0.641564   -1.015770    4.818736
| 41>   H      0.882669    3.757739    1.468768
| 42>   H      2.744554    2.716285    2.723352
| 43>   H      2.238249    0.685262    4.091438
| 44>   P     -1.761343    3.369910    1.392873
| 45>   O     -3.073712    2.781294    1.651489
| 46>   O     -1.314455    3.741596   -0.052997
| 47>   O     -1.372222    4.617922    2.255622
| 48>   C     -1.458154    5.079256   -0.670087
| 49>   C     -2.025515    4.971806    3.532343
| 50>   C     -2.873899    5.337970   -1.122990
| 51>   H     -0.764056    5.040623   -1.505100
| 52>   H     -1.111893    5.814120    0.052751
| 53>   H     -3.564965    5.378978   -0.279988
| 54>   H     -3.209200    4.572738   -1.822786
| 55>   H     -2.900433    6.304592   -1.630403
| 56>   C     -1.099873    4.693382    4.690774
| 57>   H     -2.957643    4.416086    3.602899
| 58>   H     -2.245517    6.031944    3.431443
| 59>   H     -1.585220    5.026441    5.610450
| 60>   H     -0.160964    5.237011    4.582291
| 61>   H     -0.887395    3.627658    4.783065
| 62> *
| 63> 
| 64> 
| 65>                          ****END OF INPUT****
================================================================================

                       *****************************
                       * Geometry Optimization Run *
                       *****************************

Geometry optimization settings:
Update method            Update   .... BFGS
Choice of coordinates    CoordSys .... (2022) Redundant Internals
Initial Hessian          InHess   .... Almloef's Model
Max. no of cycles        MaxIter  .... 159

Convergence Tolerances:
Energy Change            TolE     ....  2.0000e-07 Eh
Max. Gradient            TolMAXG  ....  3.0000e-05 Eh/bohr
RMS Gradient             TolRMSG  ....  8.0000e-06 Eh/bohr
Max. Displacement        TolMAXD  ....  2.0000e-04 bohr
RMS Displacement         TolRMSD  ....  1.0000e-04 bohr
Strict Convergence                .... False

------------------------------------------------------------------------------
                        ORCA OPTIMIZATION COORDINATE SETUP
------------------------------------------------------------------------------

The optimization will be done in redundant internal coordinates (2022)
Making redundant internal coordinates   ...  (2022 redundants) done
Evaluating the initial hessian          ...  (Almloef) done
Evaluating the coordinates              ...  done
Calculating the B-matrix                .... done
Calculating the G-matrix                .... done
Diagonalizing the G-matrix              .... done
Small eigenvalue found = 1.567e-03
Small eigenvalue found = 4.391e-03
Small eigenvalue found = 5.212e-03
Small eigenvalue found = 7.725e-03
Small eigenvalue found = 9.860e-03
Small eigenvalue found = 1.154e-02
Small eigenvalue found = 1.961e-02
Small eigenvalue found = 2.244e-02
Small eigenvalue found = 2.636e-02
Small eigenvalue found = 2.844e-02
The first mode is                       ....  141
The number of degrees of freedom        ....  153

    -----------------------------------------------------------------
                    Redundant Internal Coordinates


    -----------------------------------------------------------------
         Definition                    Initial Value    Approx d2E/dq
    -----------------------------------------------------------------
      1. B(C   1,C   0)                  1.5107         0.401037   
      2. B(C   2,C   1)                  1.5199         0.387729   
      3. B(C   2,C   0)                  1.4197         0.560312   
      4. B(C   3,C   2)                  1.5689         0.323813   
      5. B(C   3,C   0)                  1.5003         0.416665   
      6. B(C   4,C   1)                  1.4793         0.449999   
      7. B(C   5,C   4)                  1.3873         0.630949   
      8. B(O   6,C   4)                  1.3528         0.641530   
      9. B(C   7,C   5)                  1.4466         0.507471   
     10. B(C   7,C   3)                  1.4537         0.494454   
     11. B(C   8,C   7)                  1.3968         0.609472   
     12. B(C   9,C   8)                  1.3728         0.665494   
     13. B(C  10,C   5)                  1.4477         0.505482   
     14. B(C  11,C  10)                  1.4211         0.557435   
     15. B(C  11,C   9)                  1.4216         0.556302   
     16. B(N  12,C  10)                  1.3807         0.579054   
     17. B(C  13,N  12)                  1.3518         0.643835   
     18. B(C  14,C  13)                  1.3811         0.645677   
     19. B(C  15,C  14)                  1.3755         0.658970   
     20. B(C  15,C  11)                  1.4068         0.587394   
     21. B(C  16,O   6)                  1.4038         0.532018   
     22. B(O  17,C  16)                  1.2151         1.064040   
     23. B(N  18,C  16)                  1.3374         0.678921   
     24. B(C  19,N  18)                  1.4598         0.433081   
     25. B(C  20,N  18)                  1.4612         0.430745   
     26. B(H  21,C  20)                  1.0905         0.359391   
     27. B(H  22,C  20)                  1.0831         0.369396   
     28. B(H  23,C  20)                  1.0922         0.357247   
     29. B(H  24,C  19)                  1.0843         0.367756   
     30. B(H  25,C  19)                  1.0914         0.358190   
     31. B(H  26,C  19)                  1.0915         0.358107   
     32. B(H  27,C   3)                  1.0828         0.369707   
     33. B(H  28,C   1)                  1.0779         0.376441   
     34. B(H  29,C   2)                  1.0796         0.374150   
     35. B(H  30,C   8)                  1.0827         0.369888   
     36. B(H  31,C   9)                  1.0810         0.372220   
     37. B(H  32,C  13)                  1.0786         0.375531   
     38. B(H  33,C  14)                  1.0798         0.373806   
     39. B(H  34,C  15)                  1.0826         0.369984   
     40. B(P  35,N  12)                  1.8143         0.395778   
     41. B(O  36,P  35)                  1.4614         1.447004   
     42. B(O  37,P  35)                  1.5583         1.013459   
     43. B(O  38,P  35)                  1.5663         0.984237   
     44. B(C  39,O  37)                  1.4801         0.401864   
     45. B(C  40,O  38)                  1.4772         0.406252   
     46. B(C  41,C  39)                  1.5088         0.403876   
     47. B(H  42,C  39)                  1.0865         0.364742   
     48. B(H  43,C  39)                  1.0874         0.363570   
     49. B(H  44,C  41)                  1.0908         0.359006   
     50. B(H  45,H  24)                  3.0913         0.000044   
     51. B(H  45,C  41)                  1.0898         0.360330   
     52. B(H  46,C  41)                  1.0920         0.357424   
     53. B(C  47,C  40)                  1.5087         0.403921   
     54. B(H  48,C  40)                  1.0875         0.363417   
     55. B(H  49,C  40)                  1.0874         0.363534   
     56. B(H  50,C  47)                  1.0919         0.357566   
     57. B(H  51,C  47)                  1.0903         0.359645   
     58. B(H  52,C  47)                  1.0906         0.359293   
     59. A(C   2,C   0,C   3)           64.9328         0.397237   
     60. A(C   1,C   0,C   2)           62.3947         0.394582   
     61. A(C   1,C   0,C   3)           99.6626         0.374766   
     62. A(C   0,C   1,C   4)          119.0965         0.379787   
     63. A(C   4,C   1,H  28)          116.9670         0.336922   
     64. A(C   0,C   1,H  28)          115.8569         0.330542   
     65. A(C   2,C   1,H  28)          115.9461         0.328704   
     66. A(C   2,C   1,C   4)          119.1066         0.377575   
     67. A(C   0,C   1,C   2)           55.8657         0.370148   
     68. A(C   1,C   2,C   3)           96.2882         0.356862   
     69. A(C   1,C   2,H  29)          135.0709         0.328373   
     70. A(C   0,C   2,H  29)          145.1467         0.349175   
     71. A(C   0,C   2,C   1)           61.7396         0.392256   
     72. A(C   3,C   2,H  29)          127.4797         0.318809   
     73. A(C   0,C   2,C   3)           60.0188         0.380141   
     74. A(C   2,C   3,C   7)          116.4180         0.372017   
     75. A(C   0,C   3,C   7)          122.3458         0.388636   
     76. A(C   0,C   3,C   2)           55.0484         0.361261   
     77. A(C   2,C   3,H  27)          113.8017         0.318189   
     78. A(C   7,C   3,H  27)          116.8673         0.341232   
     79. A(C   0,C   3,H  27)          116.8944         0.331647   
     80. A(C   5,C   4,O   6)          118.0884         0.435250   
     81. A(C   1,C   4,C   5)          119.8810         0.411197   
     82. A(C   1,C   4,O   6)          121.2765         0.409751   
     83. A(C   7,C   5,C  10)          116.8456         0.403878   
     84. A(C   4,C   5,C  10)          126.0298         0.419788   
     85. A(C   4,C   5,C   7)          116.4685         0.420082   
     86. A(C   4,O   6,C  16)          122.4287         0.419398   
     87. A(C   3,C   7,C   5)          118.3570         0.402310   
     88. A(C   3,C   7,C   8)          120.8254         0.415571   
     89. A(C   5,C   7,C   8)          120.4197         0.417497   
     90. A(C   9,C   8,H  30)          120.1176         0.358806   
     91. A(C   7,C   8,C   9)          121.1203         0.438284   
     92. A(C   7,C   8,H  30)          118.5917         0.353489   
     93. A(C  11,C   9,H  31)          118.4013         0.348449   
     94. A(C   8,C   9,H  31)          121.3996         0.359189   
     95. A(C   8,C   9,C  11)          120.1746         0.431142   
     96. A(C  11,C  10,N  12)          117.5347         0.417959   
     97. A(C   5,C  10,N  12)          123.9270         0.410755   
     98. A(C   5,C  10,C  11)          118.5355         0.410642   
     99. A(C  10,C  11,C  15)          118.7124         0.421763   
    100. A(C   9,C  11,C  15)          121.4084         0.421610   
    101. A(C   9,C  11,C  10)          119.8781         0.417692   
    102. A(C  10,N  12,C  13)          120.8097         0.426068   
    103. A(C  13,N  12,P  35)          112.9204         0.425019   
    104. A(C  10,N  12,P  35)          123.4928         0.417050   
    105. A(N  12,C  13,C  14)          121.9150         0.437346   
    106. A(C  14,C  13,H  32)          121.4406         0.357886   
    107. A(N  12,C  13,H  32)          116.5574         0.355501   
    108. A(C  15,C  14,H  33)          122.1183         0.358847   
    109. A(C  13,C  14,H  33)          119.3786         0.357606   
    110. A(C  13,C  14,C  15)          118.2937         0.442088   
    111. A(C  14,C  15,H  34)          120.5769         0.358220   
    112. A(C  11,C  15,H  34)          118.8188         0.351304   
    113. A(C  11,C  15,C  14)          120.6030         0.434608   
    114. A(O  17,C  16,N  18)          127.4284         0.480508   
    115. A(O   6,C  16,N  18)          110.9074         0.423662   
    116. A(O   6,C  16,O  17)          121.6288         0.459487   
    117. A(C  19,N  18,C  20)          115.5908         0.377175   
    118. A(C  16,N  18,C  20)          125.2355         0.408043   
    119. A(C  16,N  18,C  19)          119.1105         0.408434   
    120. A(H  25,C  19,H  26)          108.7447         0.290344   
    121. A(H  24,C  19,H  26)          109.5479         0.291548   
    122. A(N  18,C  19,H  26)          109.4800         0.330019   
    123. A(H  24,C  19,H  25)          109.5458         0.291559   
    124. A(N  18,C  19,H  25)          109.7106         0.330032   
    125. A(N  18,C  19,H  24)          109.7935         0.331474   
    126. A(H  22,C  20,H  23)          109.4644         0.291642   
    127. A(H  21,C  20,H  23)          108.6539         0.290387   
    128. A(N  18,C  20,H  23)          110.2019         0.329593   
    129. A(H  21,C  20,H  22)          109.0338         0.291917   
    130. A(N  18,C  20,H  22)          110.9394         0.331421   
    131. A(N  18,C  20,H  21)          108.5008         0.329920   
    132. A(O  37,P  35,O  38)          104.4644         0.586237   
    133. A(O  36,P  35,O  38)          116.5228         0.627976   
    134. A(N  12,P  35,O  38)          102.1032         0.490918   
    135. A(O  36,P  35,O  37)          121.1843         0.631557   
    136. A(N  12,P  35,O  37)           98.9011         0.493588   
    137. A(N  12,P  35,O  36)          110.7377         0.527550   
    138. A(P  35,O  37,C  39)          125.0677         0.462646   
    139. A(P  35,O  38,C  40)          123.8547         0.461093   
    140. A(H  42,C  39,H  43)          109.3586         0.291865   
    141. A(C  41,C  39,H  43)          112.4862         0.329030   
    142. A(O  37,C  39,H  43)          107.6197         0.326786   
    143. A(C  41,C  39,H  42)          112.0146         0.329205   
    144. A(O  37,C  39,H  42)          103.0767         0.326959   
    145. A(O  37,C  39,C  41)          111.7907         0.370553   
    146. A(H  48,C  40,H  49)          109.3171         0.291694   
    147. A(C  47,C  40,H  49)          112.0417         0.329031   
    148. A(O  38,C  40,H  49)          104.0541         0.327366   
    149. A(C  47,C  40,H  48)          112.4420         0.329013   
    150. A(O  38,C  40,H  48)          108.2236         0.327348   
    151. A(O  38,C  40,C  47)          110.3697         0.371253   
    152. A(H  45,C  41,H  46)          108.4024         0.290528   
    153. A(H  44,C  41,H  46)          108.0844         0.290360   
    154. A(C  39,C  41,H  46)          108.3041         0.328106   
    155. A(H  44,C  41,H  45)          109.1303         0.290730   
    156. A(C  39,C  41,H  45)          111.1643         0.328544   
    157. A(C  39,C  41,H  44)          111.6495         0.328345   
    158. A(H  51,C  47,H  52)          109.1390         0.290679   
    159. A(H  50,C  47,H  52)          108.2633         0.290415   
    160. A(C  40,C  47,H  52)          111.3973         0.328394   
    161. A(H  50,C  47,H  51)          108.3291         0.290459   
    162. A(C  40,C  47,H  51)          111.0945         0.328447   
    163. A(C  40,C  47,H  50)          108.5241         0.328133   
    164. D(C   4,C   1,C   0,C   3)    -52.2053         0.011933   
    165. D(C   4,C   1,C   0,C   2)   -107.1744         0.011933   
    166. D(H  28,C   1,C   0,C   3)    159.9705         0.011933   
    167. D(H  28,C   1,C   0,C   2)    105.0014         0.011933   
    168. D(C   2,C   1,C   0,C   3)     54.9691         0.011933   
    169. D(C   3,C   2,C   1,H  28)   -155.7880         0.011958   
    170. D(C   1,C   2,C   0,C   3)   -116.9803         0.023344   
    171. D(C   0,C   2,C   1,H  28)   -104.8388         0.011958   
    172. D(H  29,C   2,C   0,C   3)    113.6289         0.023344   
    173. D(C   0,C   2,C   1,C   4)    107.1561         0.011958   
    174. D(C   3,C   2,C   1,C   0)    -50.9492         0.011958   
    175. D(H  29,C   2,C   1,C   0)    141.2905         0.011958   
    176. D(H  29,C   2,C   0,C   1)   -129.3908         0.023344   
    177. D(C   3,C   2,C   0,C   1)    116.9803         0.023344   
    178. D(C   3,C   2,C   1,C   4)     56.2069         0.011958   
    179. D(C   2,C   3,C   0,C   1)    -53.2332         0.012844   
    180. D(C   7,C   3,C   2,C   1)    -60.2788         0.008573   
    181. D(H  27,C   3,C   2,C   0)    107.1511         0.008573   
    182. D(H  27,C   3,C   0,C   2)   -101.3956         0.012844   
    183. D(C   0,C   3,C   2,C   1)     52.1567         0.008573   
    184. D(C   7,C   3,C   2,C   0)   -112.4355         0.008573   
    185. D(C   0,C   3,C   2,H  29)   -138.7185         0.008573   
    186. D(H  27,C   3,C   0,C   1)   -154.6287         0.012844   
    187. D(C   7,C   3,C   0,C   2)    101.5299         0.012844   
    188. D(C   7,C   3,C   2,H  29)    108.8460         0.008573   
    189. D(C   7,C   3,C   0,C   1)     48.2967         0.012844   
    190. D(O   6,C   4,C   1,C   2)    133.9237         0.014934   
    191. D(O   6,C   4,C   1,C   0)   -161.2369         0.014934   
    192. D(C   5,C   4,C   1,H  28)    176.3761         0.014934   
    193. D(C   5,C   4,C   1,C   0)     28.9012         0.014934   
    194. D(C   5,C   4,C   1,C   2)    -35.9382         0.014934   
    195. D(C  10,C   5,C   4,O   6)      8.3518         0.027607   
    196. D(C  10,C   5,C   4,C   1)    178.5335         0.027607   
    197. D(C   7,C   5,C   4,O   6)   -162.0251         0.027607   
    198. D(C   7,C   5,C   4,C   1)      8.1565         0.027607   
    199. D(C  16,O   6,C   4,C   5)   -163.0287         0.030352   
    200. D(C  16,O   6,C   4,C   1)     26.9334         0.030352   
    201. D(C   8,C   7,C   5,C  10)    -11.4455         0.017548   
    202. D(C   8,C   7,C   5,C   4)    159.8396         0.017548   
    203. D(C   3,C   7,C   5,C  10)    175.7351         0.017548   
    204. D(C   8,C   7,C   3,C   2)   -128.5473         0.018041   
    205. D(C   3,C   7,C   5,C   4)    -12.9798         0.017548   
    206. D(C   5,C   7,C   3,H  27)   -176.5715         0.018041   
    207. D(C   8,C   7,C   3,C   0)    167.7197         0.018041   
    208. D(C   5,C   7,C   3,C   2)     44.2418         0.018041   
    209. D(C   5,C   7,C   3,C   0)    -19.4912         0.018041   
    210. D(H  30,C   8,C   7,C   5)   -178.1912         0.025652   
    211. D(H  30,C   8,C   7,C   3)     -5.5507         0.025652   
    212. D(C   9,C   8,C   7,C   5)     -2.9314         0.025652   
    213. D(C   9,C   8,C   7,C   3)    169.7092         0.025652   
    214. D(H  31,C   9,C   8,H  30)      1.9683         0.030942   
    215. D(H  31,C   9,C   8,C   7)   -173.2198         0.030942   
    216. D(C  11,C   9,C   8,H  30)   -176.2056         0.030942   
    217. D(C  11,C   9,C   8,C   7)      8.6063         0.030942   
    218. D(N  12,C  10,C   5,C   7)   -160.4765         0.017408   
    219. D(N  12,C  10,C   5,C   4)     29.1787         0.017408   
    220. D(C  11,C  10,C   5,C   7)     20.1431         0.017408   
    221. D(C  11,C  10,C   5,C   4)   -150.2017         0.017408   
    222. D(C   9,C  11,C  10,C   5)    -15.1591         0.021278   
    223. D(C  15,C  11,C   9,H  31)      2.0011         0.021188   
    224. D(C  15,C  11,C   9,C   8)   -179.7708         0.021188   
    225. D(C  10,C  11,C   9,H  31)   -177.6063         0.021188   
    226. D(C  10,C  11,C   9,C   8)      0.6218         0.021188   
    227. D(C  15,C  11,C  10,N  12)    -14.1974         0.021278   
    228. D(C  15,C  11,C  10,C   5)    165.2229         0.021278   
    229. D(C   9,C  11,C  10,N  12)    165.4206         0.021278   
    230. D(P  35,N  12,C  10,C  11)   -144.3187         0.026888   
    231. D(P  35,N  12,C  10,C   5)     36.2951         0.026888   
    232. D(C  13,N  12,C  10,C  11)     15.4551         0.026888   
    233. D(C  13,N  12,C  10,C   5)   -163.9311         0.026888   
    234. D(H  32,C  13,N  12,P  35)    -19.9424         0.033774   
    235. D(H  32,C  13,N  12,C  10)    178.2999         0.033774   
    236. D(C  14,C  13,N  12,P  35)    156.7113         0.033774   
    237. D(C  14,C  13,N  12,C  10)     -5.0464         0.033774   
    238. D(H  33,C  14,C  13,H  32)     -5.1926         0.029000   
    239. D(H  33,C  14,C  13,N  12)    178.3159         0.029000   
    240. D(C  15,C  14,C  13,H  32)    169.6625         0.029000   
    241. D(C  15,C  14,C  13,N  12)     -6.8290         0.029000   
    242. D(H  34,C  15,C  14,H  33)      1.9843         0.030294   
    243. D(H  34,C  15,C  14,C  13)   -172.7218         0.030294   
    244. D(C  11,C  15,C  14,H  33)   -177.6076         0.030294   
    245. D(C  11,C  15,C  14,C  13)      7.6863         0.030294   
    246. D(H  34,C  15,C  11,C  10)   -176.7987         0.023734   
    247. D(H  34,C  15,C  11,C   9)      3.5894         0.023734   
    248. D(C  14,C  15,C  11,C  10)      2.8003         0.023734   
    249. D(C  14,C  15,C  11,C   9)   -176.8116         0.023734   
    250. D(N  18,C  16,O   6,C   4)   -150.6123         0.020414   
    251. D(O  17,C  16,O   6,C   4)     31.4008         0.020414   
    252. D(C  20,N  18,C  16,O  17)   -178.2137         0.037916   
    253. D(C  20,N  18,C  16,O   6)      3.9449         0.037916   
    254. D(C  19,N  18,C  16,O  17)      4.8134         0.037916   
    255. D(C  19,N  18,C  16,O   6)   -173.0281         0.037916   
    256. D(H  26,C  19,N  18,C  16)    121.8324         0.015991   
    257. D(H  25,C  19,N  18,C  20)     63.8355         0.015991   
    258. D(H  25,C  19,N  18,C  16)   -118.9056         0.015991   
    259. D(H  24,C  19,N  18,C  20)   -175.7246         0.015991   
    260. D(H  24,C  19,N  18,C  16)      1.5343         0.015991   
    261. D(H  23,C  20,N  18,C  16)   -106.5640         0.015819   
    262. D(H  22,C  20,N  18,C  19)   -168.0987         0.015819   
    263. D(H  22,C  20,N  18,C  16)     14.8335         0.015819   
    264. D(H  21,C  20,N  18,C  19)    -48.3461         0.015819   
    265. D(H  21,C  20,N  18,C  16)    134.5861         0.015819   
    266. D(O  38,P  35,N  12,C  10)    122.6961         0.003914   
    267. D(O  37,P  35,N  12,C  13)     68.4906         0.003914   
    268. D(O  37,P  35,N  12,C  10)   -130.3169         0.003914   
    269. D(O  36,P  35,N  12,C  13)   -163.2143         0.003914   
    270. D(O  36,P  35,N  12,C  10)     -2.0218         0.003914   
    271. D(C  39,O  37,P  35,O  38)    -39.6925         0.017621   
    272. D(C  39,O  37,P  35,O  36)     94.3499         0.017621   
    273. D(C  39,O  37,P  35,N  12)   -144.7374         0.017621   
    274. D(C  40,O  38,P  35,O  37)    155.6268         0.016632   
    275. D(C  40,O  38,P  35,O  36)     19.0430         0.016632   
    276. D(C  40,O  38,P  35,N  12)   -101.7380         0.016632   
    277. D(H  43,C  39,O  37,P  35)     46.3776         0.012752   
    278. D(H  42,C  39,O  37,P  35)    161.8975         0.012752   
    279. D(C  41,C  39,O  37,P  35)    -77.6185         0.012752   
    280. D(H  49,C  40,O  38,P  35)   -132.1055         0.013025   
    281. D(H  48,C  40,O  38,P  35)    -15.9104         0.013025   
    282. D(C  47,C  40,O  38,P  35)    107.5225         0.013025   
    283. D(H  45,C  41,C  39,H  43)   -178.2647         0.012933   
    284. D(H  45,C  41,C  39,H  42)     58.0707         0.012933   
    285. D(H  45,C  41,C  39,O  37)    -57.0465         0.012933   
    286. D(H  44,C  41,C  39,H  43)    -56.1398         0.012933   
    287. D(H  44,C  41,C  39,H  42)   -179.8044         0.012933   
    288. D(H  44,C  41,C  39,O  37)     65.0784         0.012933   
    289. D(H  50,C  47,C  40,H  48)    -62.7669         0.012936   
    290. D(H  50,C  47,C  40,O  38)    176.2841         0.012936   
    291. D(H  51,C  47,C  40,H  49)    -58.1650         0.012936   
    292. D(H  51,C  47,C  40,H  48)    178.2382         0.012936   
    293. D(H  51,C  47,C  40,O  38)     57.2892         0.012936   
    294. D(H  50,C  47,C  40,H  49)     60.8300         0.012936   
    -----------------------------------------------------------------

Number of atoms                         .... 53
Number of degrees of freedom            .... 294


         *************************************************************
         *                GEOMETRY OPTIMIZATION CYCLE   1            *
         *************************************************************
---------------------------------
CARTESIAN COORDINATES (ANGSTROEM)
---------------------------------
  C     -4.407140   -1.283900    1.663535
  C     -3.562134   -0.833223    0.495185
  C     -3.503543   -2.224811    1.103524
  C     -3.325179   -1.755231    2.589851
  C     -2.443893    0.104931    0.735672
  C     -1.793961    0.105923    1.961347
  O     -1.902122    0.825243   -0.273148
  C     -2.145701   -0.956037    2.878526
  C     -1.288086   -1.298390    3.926490
  C     -0.070792   -0.681892    4.077378
  C     -0.670381    0.941622    2.328725
  C      0.263608    0.444764    3.277509
  N     -0.439182    2.197023    1.802572
  C      0.769242    2.789395    1.930044
  C      1.786391    2.221042    2.671452
  C      1.505249    1.093319    3.407123
  C     -2.629270    1.178761   -1.420674
  O     -3.826985    1.379224   -1.379449
  N     -1.822014    1.293127   -2.480795
  C     -2.365738    1.803600   -3.735664
  C     -0.389741    1.003658   -2.484915
  H     -0.158502    0.413600   -3.372400
  H     -0.105831    0.441982   -1.603474
  H      0.182739    1.932925   -2.524336
  H     -3.412242    2.056217   -3.606581
  H     -2.266411    1.046044   -4.515088
  H     -1.809956    2.692999   -4.038106
  H     -3.598846   -2.505570    3.321032
  H     -4.072464   -0.753198   -0.450896
  H     -3.395601   -3.225616    0.713354
  H     -1.566667   -2.117424    4.577500
  H      0.641564   -1.015770    4.818736
  H      0.882669    3.757739    1.468768
  H      2.744554    2.716285    2.723352
  H      2.238249    0.685262    4.091438
  P     -1.761343    3.369910    1.392873
  O     -3.073712    2.781294    1.651489
  O     -1.314455    3.741596   -0.052997
  O     -1.372222    4.617922    2.255622
  C     -1.458154    5.079256   -0.670087
  C     -2.025515    4.971806    3.532343
  C     -2.873899    5.337970   -1.122990
  H     -0.764056    5.040623   -1.505100
  H     -1.111893    5.814120    0.052751
  H     -3.564965    5.378978   -0.279988
  H     -3.209200    4.572738   -1.822786
  H     -2.900433    6.304592   -1.630403
  C     -1.099873    4.693382    4.690774
  H     -2.957643    4.416086    3.602899
  H     -2.245517    6.031944    3.431443
  H     -1.585220    5.026441    5.610450
  H     -0.160964    5.237011    4.582291
  H     -0.887395    3.627658    4.783065

----------------------------
CARTESIAN COORDINATES (A.U.)
----------------------------
  NO LB      ZA    FRAG     MASS         X           Y           Z
   0 C     6.0000    0    12.011   -8.328288   -2.426219    3.143626
   1 C     6.0000    0    12.011   -6.731458   -1.574563    0.935764
   2 C     6.0000    0    12.011   -6.620737   -4.204283    2.085358
   3 C     6.0000    0    12.011   -6.283678   -3.316906    4.894109
   4 C     6.0000    0    12.011   -4.618288    0.198291    1.390219
   5 C     6.0000    0    12.011   -3.390095    0.200165    3.706409
   6 O     8.0000    0    15.999   -3.594490    1.559483   -0.516175
   7 C     6.0000    0    12.011   -4.054787   -1.806648    5.439626
   8 C     6.0000    0    12.011   -2.434130   -2.453602    7.419991
   9 C     6.0000    0    12.011   -0.133777   -1.288589    7.705128
  10 C     6.0000    0    12.011   -1.266836    1.779408    4.400652
  11 C     6.0000    0    12.011    0.498147    0.840482    6.193594
  12 N     7.0000    0    14.007   -0.829934    4.151772    3.406367
  13 C     6.0000    0    12.011    1.453657    5.271193    3.647255
  14 C     6.0000    0    12.011    3.375790    4.197161    5.048313
  15 C     6.0000    0    12.011    2.844508    2.066073    6.438529
  16 C     6.0000    0    12.011   -4.968600    2.227535   -2.684685
  17 O     8.0000    0    15.999   -7.231954    2.606356   -2.606781
  18 N     7.0000    0    14.007   -3.443107    2.443656   -4.688023
  19 C     6.0000    0    12.011   -4.470597    3.408310   -7.059382
  20 C     6.0000    0    12.011   -0.736504    1.896639   -4.695809
  21 H     1.0000    0     1.008   -0.299525    0.781591   -6.372912
  22 H     1.0000    0     1.008   -0.199992    0.835225   -3.030127
  23 H     1.0000    0     1.008    0.345327    3.652699   -4.770304
  24 H     1.0000    0     1.008   -6.448203    3.885687   -6.815450
  25 H     1.0000    0     1.008   -4.282896    1.976737   -8.532280
  26 H     1.0000    0     1.008   -3.420321    5.089031   -7.630914
  27 H     1.0000    0     1.008   -6.800833   -4.734841    6.275841
  28 H     1.0000    0     1.008   -7.695842   -1.423338   -0.852070
  29 H     1.0000    0     1.008   -6.416756   -6.095531    1.348044
  30 H     1.0000    0     1.008   -2.960572   -4.001351    8.650221
  31 H     1.0000    0     1.008    1.212380   -1.919527    9.106091
  32 H     1.0000    0     1.008    1.668003    7.101098    2.775569
  33 H     1.0000    0     1.008    5.186455    5.133035    5.146389
  34 H     1.0000    0     1.008    4.229678    1.294958    7.731697
  35 P    15.0000    0    30.974   -3.328456    6.368207    2.632149
  36 O     8.0000    0    15.999   -5.808474    5.255884    3.120862
  37 O     8.0000    0    15.999   -2.483960    7.070592   -0.100150
  38 O     8.0000    0    15.999   -2.593124    8.726608    4.262508
  39 C     6.0000    0    12.011   -2.755512    9.598403   -1.266281
  40 C     6.0000    0    12.011   -3.827669    9.395352    6.675161
  41 C     6.0000    0    12.011   -5.430882   10.087301   -2.122144
  42 H     1.0000    0     1.008   -1.443857    9.525397   -2.844227
  43 H     1.0000    0     1.008   -2.101173   10.987095    0.099685
  44 H     1.0000    0     1.008   -6.736808   10.164795   -0.529101
  45 H     1.0000    0     1.008   -6.064509    8.641223   -3.444566
  46 H     1.0000    0     1.008   -5.481024   11.913952   -3.081015
  47 C     6.0000    0    12.011   -2.078459    8.869207    8.864278
  48 H     1.0000    0     1.008   -5.589135    8.345193    6.808492
  49 H     1.0000    0     1.008   -4.243412   11.398722    6.484488
  50 H     1.0000    0     1.008   -2.995632    9.498597   10.602214
  51 H     1.0000    0     1.008   -0.304178    9.896517    8.659275
  52 H     1.0000    0     1.008   -1.676934    6.855280    9.038683

--------------------------------
INTERNAL COORDINATES (ANGSTROEM)
--------------------------------
 C      0   0   0     0.000000000000     0.00000000     0.00000000
 C      1   0   0     1.510690776057     0.00000000     0.00000000
 C      1   2   0     1.419652552018    62.39468924     0.00000000
 C      1   2   3     1.500284589316    99.66256694    54.96905276
 C      2   1   3     1.479334262081   119.09652030   252.82561128
 C      5   2   1     1.387332618485   119.88098476    28.90117817
 O      5   2   1     1.352805598076   121.27646601   198.76305271
 C      6   5   2     1.446615839551   116.46847936     8.15653795
 C      8   6   5     1.396759682311   120.41970319   159.83959037
 C      9   8   6     1.372822514014   121.12026170   357.06860548
 C      6   5   2     1.447684851715   126.02982833   178.53346228
 C     11   6   5     1.421053976083   118.53552274   209.79829270
 N     11   6   5     1.380696066414   123.92704021    29.17870073
 C     13  11   6     1.351829227730   120.80967863   196.06892930
 C     14  13  11     1.381051426730   121.91496523   354.95355658
 C     15  14  13     1.375504201787   118.29369433   353.17100725
 C      7   5   2     1.403757497185   122.42865479    26.93337321
 O     17   7   5     1.215074539367   121.62877722    31.40076057
 N     17   7   5     1.337384898275   110.90735585   209.38765663
 C     19  17   7     1.459765282183   119.11048845   186.97190743
 C     19  17   7     1.461237565521   125.23545198     3.94488121
 H     21  19  17     1.090536355978   108.50083302   134.58609075
 H     21  19  17     1.083061888147   110.93935894    14.83353248
 H     21  19  17     1.092165062127   110.20192498   253.43595881
 H     20  19  17     1.084273208926   109.79354237     1.53425412
 H     20  19  17     1.091447991359   109.71058014   241.09439959
 H     20  19  17     1.091510593668   109.48002489   121.83238614
 H      4   1   2     1.082833272748   116.89443223   205.37126434
 H      2   1   3     1.077919277166   115.85690568   105.00140575
 H      3   1   2     1.079580822490   145.14673845   230.60921612
 H      9   8   6     1.082699444360   118.59166170   181.80880088
 H     10   9   8     1.080989025746   121.39964420   186.78024197
 H     14  13  11     1.078578386044   116.55743016   178.29987899
 H     15  14  13     1.079831270902   119.37860367   178.31593639
 H     16  15  14     1.082629453910   120.57694066   187.27819199
 P     13  11   6     1.814284127498   123.49279309    36.29512045
 O     36  13  11     1.461390920689   110.73772398   357.97820044
 O     36  13  11     1.558332257267    98.90109104   229.68312908
 O     36  13  11     1.566296568912   102.10318588   122.69611691
 C     38  36  13     1.480129638343   125.06767176   215.26264294
 C     39  36  13     1.477173700397   123.85468506   258.26196741
 C     40  38  36     1.508770349069   111.79073757   282.38147639
 H     40  38  36     1.086513346656   103.07669722   161.89751037
 H     40  38  36     1.087389788834   107.61968581    46.37758103
 H     42  40  38     1.090828237819   111.64949358    65.07836360
 H     42  40  38     1.089826232039   111.16434200   302.95346367
 H     42  40  38     1.092030263596   108.30409265   183.96497550
 C     41  39  36     1.508739678573   110.36971288   107.52245930
 H     41  39  36     1.087504241794   108.22356440   344.08955927
 H     41  39  36     1.087416327378   104.05407034   227.89452014
 H     48  41  39     1.091922136815   108.52405921   176.28412870
 H     48  41  39     1.090344514918   111.09450675    57.28916363
 H     48  41  39     1.090610917487   111.39733320   295.37957777

---------------------------
INTERNAL COORDINATES (A.U.)
---------------------------
 C      0   0   0     0.000000000000     0.00000000     0.00000000
 C      1   0   0     2.854791839790     0.00000000     0.00000000
 C      1   2   0     2.682754528636    62.39468924     0.00000000
 C      1   2   3     2.835126996749    99.66256694    54.96905276
 C      2   1   3     2.795536615859   119.09652030   252.82561128
 C      5   2   1     2.621678705593   119.88098476    28.90117817
 O      5   2   1     2.556432092799   121.27646601   198.76305271
 C      6   5   2     2.733707757745   116.46847936     8.15653795
 C      8   6   5     2.639493274471   120.41970319   159.83959037
 C      9   8   6     2.594258581968   121.12026170   357.06860548
 C      6   5   2     2.735727897968   126.02982833   178.53346228
 C     11   6   5     2.685402836317   118.53552274   209.79829270
 N     11   6   5     2.609137439705   123.92704021    29.17870073
 C     13  11   6     2.554587020239   120.80967863   196.06892930
 C     14  13  11     2.609808973382   121.91496523   354.95355658
 C     15  14  13     2.599326237436   118.29369433   353.17100725
 C      7   5   2     2.652717228119   122.42865479    26.93337321
 O     17   7   5     2.296158111705   121.62877722    31.40076057
 N     17   7   5     2.527291193381   110.90735585   209.38765663
 C     19  17   7     2.758556603132   119.11048845   186.97190743
 C     19  17   7     2.761338815433   125.23545198     3.94488121
 H     21  19  17     2.060815051883   108.50083302   134.58609075
 H     21  19  17     2.046690354686   110.93935894    14.83353248
 H     21  19  17     2.063892860456   110.20192498   253.43595881
 H     20  19  17     2.048979419218   109.79354237     1.53425412
 H     20  19  17     2.062537793086   109.71058014   241.09439959
 H     20  19  17     2.062656094306   109.48002489   121.83238614
 H      4   1   2     2.046258334192   116.89443223   205.37126434
 H      2   1   3     2.036972228318   115.85690568   105.00140575
 H      3   1   2     2.040112093940   145.14673845   230.60921612
 H      9   8   6     2.046005435189   118.59166170   181.80880088
 H     10   9   8     2.042773212435   121.39964420   186.78024197
 H     14  13  11     2.038217763590   116.55743016   178.29987899
 H     15  14  13     2.040585372849   119.37860367   178.31593639
 H     16  15  14     2.045873172407   120.57694066   187.27819199
 P     13  11   6     3.428500130091   123.49279309    36.29512045
 O     36  13  11     2.761628614702   110.73772398   357.97820044
 O     36  13  11     2.944821191891    98.90109104   229.68312908
 O     36  13  11     2.959871559744   102.10318588   122.69611691
 C     38  36  13     2.797039659168   125.06767176   215.26264294
 C     39  36  13     2.791453745982   123.85468506   258.26196741
 C     40  38  36     2.851162758721   111.79073757   282.38147639
 H     40  38  36     2.053212666030   103.07669722   161.89751037
 H     40  38  36     2.054868901719   107.61968581    46.37758103
 H     42  40  38     2.061366628626   111.64949358    65.07836360
 H     42  40  38     2.059473112118   111.16434200   302.95346367
 H     42  40  38     2.063638128150   108.30409265   183.96497550
 C     41  39  36     2.851104799884   110.36971288   107.52245930
 H     41  39  36     2.055085186468   108.22356440   344.08955927
 H     41  39  36     2.054919052299   104.05407034   227.89452014
 H     48  41  39     2.063433798146   108.52405921   176.28412870
 H     48  41  39     2.060452524818   111.09450675    57.28916363
 H     48  41  39     2.060955952714   111.39733320   295.37957777

---------------------
BASIS SET INFORMATION
---------------------
There are 5 groups of distinct atoms

 Group   1 Type C   : 11s6p2d contracted to 5s3p2d pattern {62111/411/11}
 Group   2 Type O   : 11s6p2d contracted to 5s3p2d pattern {62111/411/11}
 Group   3 Type N   : 11s6p2d contracted to 5s3p2d pattern {62111/411/11}
 Group   4 Type H   : 5s1p contracted to 3s1p pattern {311/1}
 Group   5 Type P   : 14s9p3d contracted to 5s5p2d pattern {73211/51111/21}

Atom   0C    basis set group =>   1
Atom   1C    basis set group =>   1
Atom   2C    basis set group =>   1
Atom   3C    basis set group =>   1
Atom   4C    basis set group =>   1
Atom   5C    basis set group =>   1
Atom   6O    basis set group =>   2
Atom   7C    basis set group =>   1
Atom   8C    basis set group =>   1
Atom   9C    basis set group =>   1
Atom  10C    basis set group =>   1
Atom  11C    basis set group =>   1
Atom  12N    basis set group =>   3
Atom  13C    basis set group =>   1
Atom  14C    basis set group =>   1
Atom  15C    basis set group =>   1
Atom  16C    basis set group =>   1
Atom  17O    basis set group =>   2
Atom  18N    basis set group =>   3
Atom  19C    basis set group =>   1
Atom  20C    basis set group =>   1
Atom  21H    basis set group =>   4
Atom  22H    basis set group =>   4
Atom  23H    basis set group =>   4
Atom  24H    basis set group =>   4
Atom  25H    basis set group =>   4
Atom  26H    basis set group =>   4
Atom  27H    basis set group =>   4
Atom  28H    basis set group =>   4
Atom  29H    basis set group =>   4
Atom  30H    basis set group =>   4
Atom  31H    basis set group =>   4
Atom  32H    basis set group =>   4
Atom  33H    basis set group =>   4
Atom  34H    basis set group =>   4
Atom  35P    basis set group =>   5
Atom  36O    basis set group =>   2
Atom  37O    basis set group =>   2
Atom  38O    basis set group =>   2
Atom  39C    basis set group =>   1
Atom  40C    basis set group =>   1
Atom  41C    basis set group =>   1
Atom  42H    basis set group =>   4
Atom  43H    basis set group =>   4
Atom  44H    basis set group =>   4
Atom  45H    basis set group =>   4
Atom  46H    basis set group =>   4
Atom  47C    basis set group =>   1
Atom  48H    basis set group =>   4
Atom  49H    basis set group =>   4
Atom  50H    basis set group =>   4
Atom  51H    basis set group =>   4
Atom  52H    basis set group =>   4
---------------------------------
AUXILIARY/J BASIS SET INFORMATION
---------------------------------
There are 5 groups of distinct atoms

 Group   1 Type C   : 12s5p4d2f1g contracted to 6s4p3d1f1g pattern {711111/2111/211/2/1}
 Group   2 Type O   : 12s5p4d2f1g contracted to 6s4p3d1f1g pattern {711111/2111/211/2/1}
 Group   3 Type N   : 12s5p4d2f1g contracted to 6s4p3d1f1g pattern {711111/2111/211/2/1}
 Group   4 Type H   : 5s2p1d contracted to 3s1p1d pattern {311/2/1}
 Group   5 Type P   : 14s5p5d2f1g contracted to 8s4p3d1f1g pattern {71111111/2111/311/2/1}

Atom   0C    basis set group =>   1
Atom   1C    basis set group =>   1
Atom   2C    basis set group =>   1
Atom   3C    basis set group =>   1
Atom   4C    basis set group =>   1
Atom   5C    basis set group =>   1
Atom   6O    basis set group =>   2
Atom   7C    basis set group =>   1
Atom   8C    basis set group =>   1
Atom   9C    basis set group =>   1
Atom  10C    basis set group =>   1
Atom  11C    basis set group =>   1
Atom  12N    basis set group =>   3
Atom  13C    basis set group =>   1
Atom  14C    basis set group =>   1
Atom  15C    basis set group =>   1
Atom  16C    basis set group =>   1
Atom  17O    basis set group =>   2
Atom  18N    basis set group =>   3
Atom  19C    basis set group =>   1
Atom  20C    basis set group =>   1
Atom  21H    basis set group =>   4
Atom  22H    basis set group =>   4
Atom  23H    basis set group =>   4
Atom  24H    basis set group =>   4
Atom  25H    basis set group =>   4
Atom  26H    basis set group =>   4
Atom  27H    basis set group =>   4
Atom  28H    basis set group =>   4
Atom  29H    basis set group =>   4
Atom  30H    basis set group =>   4
Atom  31H    basis set group =>   4
Atom  32H    basis set group =>   4
Atom  33H    basis set group =>   4
Atom  34H    basis set group =>   4
Atom  35P    basis set group =>   5
Atom  36O    basis set group =>   2
Atom  37O    basis set group =>   2
Atom  38O    basis set group =>   2
Atom  39C    basis set group =>   1
Atom  40C    basis set group =>   1
Atom  41C    basis set group =>   1
Atom  42H    basis set group =>   4
Atom  43H    basis set group =>   4
Atom  44H    basis set group =>   4
Atom  45H    basis set group =>   4
Atom  46H    basis set group =>   4
Atom  47C    basis set group =>   1
Atom  48H    basis set group =>   4
Atom  49H    basis set group =>   4
Atom  50H    basis set group =>   4
Atom  51H    basis set group =>   4
Atom  52H    basis set group =>   4
---------------------------------
AUXILIARY/C BASIS SET INFORMATION
---------------------------------
There are 5 groups of distinct atoms

 Group   1 Type C   : 8s6p5d3f1g contracted to 8s6p4d3f1g pattern {11111111/111111/2111/111/1}
 Group   2 Type O   : 8s6p5d3f1g contracted to 8s6p4d3f1g pattern {11111111/111111/2111/111/1}
 Group   3 Type N   : 8s6p5d3f1g contracted to 8s6p4d3f1g pattern {11111111/111111/2111/111/1}
 Group   4 Type H   : 4s3p2d contracted to 4s2p1d pattern {1111/21/2}
 Group   5 Type P   : 10s7p7d5f2g contracted to 9s7p6d5f2g pattern {211111111/1111111/211111/11111/11}

Atom   0C    basis set group =>   1
Atom   1C    basis set group =>   1
Atom   2C    basis set group =>   1
Atom   3C    basis set group =>   1
Atom   4C    basis set group =>   1
Atom   5C    basis set group =>   1
Atom   6O    basis set group =>   2
Atom   7C    basis set group =>   1
Atom   8C    basis set group =>   1
Atom   9C    basis set group =>   1
Atom  10C    basis set group =>   1
Atom  11C    basis set group =>   1
Atom  12N    basis set group =>   3
Atom  13C    basis set group =>   1
Atom  14C    basis set group =>   1
Atom  15C    basis set group =>   1
Atom  16C    basis set group =>   1
Atom  17O    basis set group =>   2
Atom  18N    basis set group =>   3
Atom  19C    basis set group =>   1
Atom  20C    basis set group =>   1
Atom  21H    basis set group =>   4
Atom  22H    basis set group =>   4
Atom  23H    basis set group =>   4
Atom  24H    basis set group =>   4
Atom  25H    basis set group =>   4
Atom  26H    basis set group =>   4
Atom  27H    basis set group =>   4
Atom  28H    basis set group =>   4
Atom  29H    basis set group =>   4
Atom  30H    basis set group =>   4
Atom  31H    basis set group =>   4
Atom  32H    basis set group =>   4
Atom  33H    basis set group =>   4
Atom  34H    basis set group =>   4
Atom  35P    basis set group =>   5
Atom  36O    basis set group =>   2
Atom  37O    basis set group =>   2
Atom  38O    basis set group =>   2
Atom  39C    basis set group =>   1
Atom  40C    basis set group =>   1
Atom  41C    basis set group =>   1
Atom  42H    basis set group =>   4
Atom  43H    basis set group =>   4
Atom  44H    basis set group =>   4
Atom  45H    basis set group =>   4
Atom  46H    basis set group =>   4
Atom  47C    basis set group =>   1
Atom  48H    basis set group =>   4
Atom  49H    basis set group =>   4
Atom  50H    basis set group =>   4
Atom  51H    basis set group =>   4
Atom  52H    basis set group =>   4
------------------------------------------------------------------------------
                             ORCA STARTUP CALCULATIONS
                           -- RI-GTO INTEGRALS CHOSEN --
------------------------------------------------------------------------------
------------------------------------------------------------------------------
                   ___                                                        
                  /   \      - P O W E R E D   B Y -                         
                 /     \                                                     
                 |  |  |   _    _      __       _____    __    __             
                 |  |  |  | |  | |    /  \     |  _  \  |  |  /  |          
                  \  \/   | |  | |   /    \    | | | |  |  | /  /          
                 / \  \   | |__| |  /  /\  \   | |_| |  |  |/  /          
                |  |  |   |  __  | /  /__\  \  |    /   |      \           
                |  |  |   | |  | | |   __   |  |    \   |  |\   \          
                \     /   | |  | | |  |  |  |  | |\  \  |  | \   \       
                 \___/    |_|  |_| |__|  |__|  |_| \__\ |__|  \__/        
                                                                              
                      - O R C A' S   B I G   F R I E N D -                    
                                      &                                       
                       - I N T E G R A L  F E E D E R -                       
                                                                              
 v1 FN, 2020, v2 2021, v3 2022-2024                                           
------------------------------------------------------------------------------


----------------------
SHARK INTEGRAL PACKAGE
----------------------

Number of atoms                             ...     53
Number of basis functions                   ...    846
Number of shells                            ...    388
Maximum angular momentum                    ...      2
Integral batch strategy                     ... SHARK/LIBINT Hybrid
RI-J (if used) integral strategy            ... SPLIT-RIJ (Revised 2003 algorithm where possible)
Printlevel                                  ...      1
Contraction scheme used                     ... SEGMENTED contraction
Prescreening option                         ... SCHWARTZ
   Thresh                                   ... 2.500e-11
   Tcut                                     ... 2.500e-12
   Tpresel                                  ... 2.500e-12 
Coulomb Range Separation                    ... NOT USED
Exchange Range Separation                   ... NOT USED
Multipole approximations                    ... NOT USED
Finite Nucleus Model                        ... NOT USED
CABS basis                                  ... NOT available
Auxiliary Coulomb fitting basis             ... AVAILABLE
   # of basis functions in Aux-J            ...   1687
   # of shells in Aux-J                     ...    557
   Maximum angular momentum in Aux-J        ...      4
Auxiliary J/K fitting basis                 ... NOT available
Auxiliary Correlation fitting basis         ... AVAILABLE
   # of basis functions in Aux-C            ...   2601
   # of shells in Aux-C                     ...    813
   Maximum angular momentum in Aux-C        ...      4
Auxiliary 'external' fitting basis          ... NOT available

Checking pre-screening integrals            ... done (  0.0 sec) Dimension = 388
Check shell pair data                       ... done (  0.0 sec)
Shell pair information
Shell pair cut-off parameter TPreSel        ...   2.5e-12
Total number of shell pairs                 ...     75466
Shell pairs after pre-screening             ...     52063
Total number of primitive shell pairs       ...    247477
Primitive shell pairs kept                  ...    107597
          la=0 lb=0:  15461 shell pairs
          la=1 lb=0:  17409 shell pairs
          la=1 lb=1:   4931 shell pairs
          la=2 lb=0:   8323 shell pairs
          la=2 lb=1:   4748 shell pairs
          la=2 lb=2:   1191 shell pairs

Calculating one electron integrals          ... done (  0.4 sec)
Calculating RI/J V-Matrix + Cholesky decomp.... done (  0.6 sec)
Calculating RI/C V-Matrix + Cholesky decomp.... done (  1.2 sec)
Calculating Nuclear repulsion               ... done (  0.0 sec) ENN=   3278.298501865174 Eh

Diagonalization of the overlap matrix:
Smallest eigenvalue                        ... 6.458e-06
Time for diagonalization                   ...    0.134 sec
Threshold for overlap eigenvalues          ... 1.000e-07
Number of eigenvalues below threshold      ... 0
Time for construction of square roots      ...    0.112 sec
Total time needed                          ...    0.285 sec

-------------------
DFT GRID GENERATION
-------------------

General Integration Accuracy     IntAcc      ... 4.388
Radial Grid Type                 RadialGrid  ... OptM3 with GC (2021)
Angular Grid (max. ang.)         AngularGrid ... 4 (Lebedev-302)
Angular grid pruning method      GridPruning ... 4 (adaptive)
Weight generation scheme         WeightScheme... mBecke (2022)
Basis function cutoff            BFCut       ... 1.0000e-11
Integration weight cutoff        WCut        ... 1.0000e-14
Partially contracted basis set               ... off
Rotationally invariant grid construction     ... off
Angular grids for H and He will be reduced by one unit

Total number of grid points                  ...   250198
Total number of batches                      ...     3933
Average number of points per batch           ...       63
Average number of grid points per atom       ...     4721

--------------------
COSX GRID GENERATION
--------------------

GRIDX 1
-------
General Integration Accuracy     IntAcc      ... 3.816
Radial Grid Type                 RadialGrid  ... OptM3 with GC (2021)
Angular Grid (max. ang.)         AngularGrid ... 1 (Lebedev-50)
Angular grid pruning method      GridPruning ... 4 (adaptive)
Weight generation scheme         WeightScheme... mBecke (2022)
Basis function cutoff            BFCut       ... 1.0000e-11
Integration weight cutoff        WCut        ... 1.0000e-14
Partially contracted basis set               ... on
Rotationally invariant grid construction     ... off
Angular grids for H and He will be reduced by one unit

Total number of grid points                  ...    32766
Total number of batches                      ...      284
Average number of points per batch           ...      115
Average number of grid points per atom       ...      618
UseSFitting                                  ... on

GRIDX 2
-------
General Integration Accuracy     IntAcc      ... 4.020
Radial Grid Type                 RadialGrid  ... OptM3 with GC (2021)
Angular Grid (max. ang.)         AngularGrid ... 2 (Lebedev-110)
Angular grid pruning method      GridPruning ... 4 (adaptive)
Weight generation scheme         WeightScheme... mBecke (2022)
Basis function cutoff            BFCut       ... 1.0000e-11
Integration weight cutoff        WCut        ... 1.0000e-14
Partially contracted basis set               ... on
Rotationally invariant grid construction     ... off
Angular grids for H and He will be reduced by one unit

Total number of grid points                  ...    68099
Total number of batches                      ...      556
Average number of points per batch           ...      122
Average number of grid points per atom       ...     1285
UseSFitting                                  ... on

GRIDX 3
-------
General Integration Accuracy     IntAcc      ... 4.338
Radial Grid Type                 RadialGrid  ... OptM3 with GC (2021)
Angular Grid (max. ang.)         AngularGrid ... 3 (Lebedev-194)
Angular grid pruning method      GridPruning ... 4 (adaptive)
Weight generation scheme         WeightScheme... mBecke (2022)
Basis function cutoff            BFCut       ... 1.0000e-11
Integration weight cutoff        WCut        ... 1.0000e-14
Partially contracted basis set               ... on
Rotationally invariant grid construction     ... off
Angular grids for H and He will be reduced by one unit

Total number of grid points                  ...   148767
Total number of batches                      ...     1191
Average number of points per batch           ...      124
Average number of grid points per atom       ...     2807
UseSFitting                                  ... on
Initializing property integral containers    ... done (  0.0 sec)

SHARK setup successfully completed in  17.3 seconds

Maximum memory used throughout the entire STARTUP-calculation: 209.2 MB
-------------------------------------------------------------------------------
                                 ORCA GUESS
                   Start orbitals & Density for SCF / CASSCF
-------------------------------------------------------------------------------

------------
SCF SETTINGS
------------
Hamiltonian:
 Density Functional     Method          .... DFT(GTOs)
 Exchange Functional    Exchange        .... B88
   X-Alpha parameter    XAlpha          ....  0.666667
   Becke's b parameter  XBeta           ....  0.004200
 Correlation Functional Correlation     .... LYP
 LDA part of GGA corr.  LDAOpt          .... VWN-3
 Gradients option       PostSCFGGA      .... off
 Hybrid DFT is turned on
   Fraction HF Exchange ScalHFX         ....  0.200000
   Scaling of DF-GGA-X  ScalDFX         ....  0.720000
   Scaling of DF-GGA-C  ScalDFC         ....  0.810000
   Scaling of DF-LDA-C  ScalLDAC        ....  1.000000
   Perturbative correction              ....  0.000000
   NL short-range parameter             ....  4.800000
 RI-approximation to the Coulomb term is turned on
   Number of AuxJ basis functions       .... 1687
   RIJ-COSX (HFX calculated with COS-X)).... on


General Settings:
 Integral files         IntName         .... hbqdcp-es
 Hartree-Fock type      HFTyp           .... RHF
 Total Charge           Charge          ....    1
 Multiplicity           Mult            ....    1
 Number of Electrons    NEL             ....  218
 Basis Dimension        Dim             ....  846
 Nuclear Repulsion      ENuc            ....   3278.2985018652 Eh

Convergence Acceleration:
 AO-DIIS                CNVDIIS         .... on
   Start iteration      DIISMaxIt       ....    12
   Startup error        DIISStart       ....  0.200000
   # of expansion vecs  DIISMaxEq       ....     5
   Bias factor          DIISBfac        ....   1.050
   Max. coefficient     DIISMaxC        ....  10.000
 MO-DIIS                CNVKDIIS        .... off
 Trust-Rad. Augm. Hess. CNVTRAH         .... auto
   Auto Start mean grad. ratio tolernc. ....  1.125000
   Auto Start start iteration           ....    50
   Auto Start num. interpolation iter.  ....    10
   Max. Number of Micro iterations      ....    24
   Max. Number of Macro iterations      .... Maxiter - #DIIS iter
   Number of Davidson start vectors     ....     2
   Converg. threshold    (grad. norm)   ....   1.000e-05
   Grad. Scal. Fac. for Micro threshold ....   0.100
   Minimum threshold for Micro iter.    ....   1.000e-02
   NR start threshold (gradient norm)   ....   1.000e-04
   Initial trust radius                 ....   0.400
   Minimum AH scaling param. (alpha)    ....   1.000
   Maximum AH scaling param. (alpha)    .... 1000.000
   Quad. conv. algorithm                .... NR
   White noise on init. David. guess    .... on
   Maximum white noise                  ....   0.010
   Pseudo random numbers                .... off
   Inactive MOs                         .... canonical
   Orbital update algorithm             .... Taylor
   Preconditioner                       .... Diag
   Full preconditioner red. dimension   ....   250
 SOSCF                  CNVSOSCF        .... on
   Start iteration      SOSCFMaxIt      ....   150
   Startup grad/error   SOSCFStart      ....  0.003300
   Hessian update       SOSCFHessUp     .... L-BFGS
 Level Shifting         CNVShift        .... on
   Level shift para.    LevelShift      ....    0.2500
   Turn off err/grad.   ShiftErr        ....    0.0010
 Zerner damping         CNVZerner       .... off
 Static damping         CNVDamp         .... on
   Fraction old density DampFac         ....    0.7000
   Max. Damping (<1)    DampMax         ....    0.9800
   Min. Damping (>=0)   DampMin         ....    0.0000
   Turn off err/grad.   DampErr         ....    0.1000

SCF Procedure:
 Maximum # iterations   MaxIter         ....   125
 SCF integral mode      SCFMode         .... Direct
   Integral package                     .... SHARK and LIBINT hybrid scheme
 Reset frequency        DirectResetFreq ....    20
 Integral Threshold     Thresh          ....  2.500e-11 Eh
 Primitive CutOff       TCut            ....  2.500e-12 Eh

Convergence Tolerance:
 Convergence Check Mode ConvCheckMode   .... Total+1el-Energy
 Convergence forced     ConvForced      .... 1
 Energy Change          TolE            ....  1.000e-08 Eh
 1-El. energy change                    ....  1.000e-05 Eh
 Orbital Gradient       TolG            ....  1.000e-05
 Orbital Rotation angle TolX            ....  1.000e-05
 DIIS Error             TolErr          ....  5.000e-07

------------------------------
INITIAL GUESS: MODEL POTENTIAL
------------------------------
Loading Hartree-Fock densities                     ... done
Calculating cut-offs                               ... done
Initializing the effective Hamiltonian             ... done
Setting up the integral package (SHARK)            ... done
Starting the Coulomb interaction                   ... done (   5.0 sec)
Making the grid                                    ... done (   1.5 sec)
Mapping shells                                     ... done
Starting the XC term evaluation                    ... done (   2.1 sec)
  promolecular density results
     # of electrons  =    218.981384220
     EX              =   -192.122002650
     EC              =     -7.619175956
     EX+EC           =   -199.741178607
Transforming the Hamiltonian                       ... done (   0.1 sec)
Diagonalizing the Hamiltonian                      ... done (   0.1 sec)
Back transforming the eigenvectors                 ... done (   0.1 sec)
Now organizing SCF variables                       ... done
                      ------------------
                      INITIAL GUESS DONE (   9.3 sec)
                      ------------------
             **** ENERGY FILE WAS UPDATED (hbqdcp-es.en.tmp) ****
Finished Guess after  10.8 sec
Maximum memory used throughout the entire GUESS-calculation: 132.5 MB

-------------------------------------------------------------------------------------------
                                      ORCA LEAN-SCF
                              memory conserving SCF solver
-------------------------------------------------------------------------------------------

--------------------
CPCM SOLVATION MODEL
--------------------
CPCM parameters:
  Epsilon                                         ...      80.1510
  Refrac                                          ...       1.3328
  Rsolv                                           ...       1.3000
  Surface type                                    ... GAUSSIAN VDW
  Discretization scheme                           ... Constant charge density
    Threshold for H atoms                         ...       5.0000 (charges/Ang^2)
    Threshold for non-H atoms                     ...       5.0000 (charges/Ang^2)
  Epsilon function type                           ...         CPCM
Solvent:                                          ... WATER
Radii:
  Scheme                                          ... Element-dependent radii
  Radius for C  used is    3.8550 Bohr (=   2.0400 Ang.)
  Radius for O  used is    3.4469 Bohr (=   1.8240 Ang.)
  Radius for N  used is    3.5149 Bohr (=   1.8600 Ang.)
  Radius for H  used is    2.4944 Bohr (=   1.3200 Ang.)
  Radius for P  used is    4.0818 Bohr (=   2.1600 Ang.)
Calculating surface                               ...        done! (  0.0s)
Cavity surface points                             ...         4445
Cavity Volume                                     ...    3171.2253
Cavity Surface-area                               ...    1569.9946
Calculating surface distance matrix               ...        done! (  0.1s)
Performing Cholesky decomposition & store         ...        done! (  2.2s)
Overall time for CPCM initialization              ...                 2.3s

----------------------------------------D-I-I-S--------------------------------------------
Iteration    Energy (Eh)           Delta-E    RMSDP     MaxDP     DIISErr   Damp  Time(sec)
-------------------------------------------------------------------------------------------
               ***  Starting incremental Fock matrix formation  ***
    1    -1641.0616849381126485     0.00e+00  1.51e-03  1.43e-01  3.73e-01  0.700 126.4
Warning: op=0 Small HOMO/LUMO gap (   0.014) - skipping pre-diagonalization
         Will do a full diagonalization
    2    -1641.4766620297227746    -4.15e-01  1.34e-03  1.48e-01  1.29e-01  0.700  67.0
                               ***Turning on AO-DIIS***
    3    -1641.6262159458815404    -1.50e-01  5.35e-04  4.10e-02  3.81e-02  0.700  65.6
    4    -1641.7173446716956278    -9.11e-02  8.52e-04  7.69e-02  1.93e-02  0.000  61.9
    5    -1641.9225014494727475    -2.05e-01  3.70e-04  4.08e-02  9.66e-03  0.000  64.5
                              *** Initializing SOSCF ***
---------------------------------------S-O-S-C-F--------------------------------------
Iteration    Energy (Eh)           Delta-E    RMSDP     MaxDP     MaxGrad    Time(sec)
--------------------------------------------------------------------------------------
    6    -1641.9239061842613410    -1.40e-03  1.44e-04  1.43e-02  3.25e-03    59.2
               *** Restarting incremental Fock matrix formation ***
    7    -1641.9240297572846430    -1.24e-04  8.14e-05  5.35e-03  1.01e-03   126.8
    8    -1641.9240510546856058    -2.13e-05  4.43e-05  2.53e-03  1.05e-03    87.1
    9    -1641.9241057987496788    -5.47e-05  3.14e-05  2.85e-03  1.55e-04    82.7
   10    -1641.9241081853201649    -2.39e-06  2.63e-05  2.33e-03  1.12e-04    75.4
   11    -1641.9241100658914547    -1.88e-06  9.00e-06  1.01e-03  9.31e-05    72.6
   12    -1641.9241108307928698    -7.65e-07  1.02e-05  8.91e-04  8.32e-05    67.6
   13    -1641.9241113405782926    -5.10e-07  8.39e-06  6.66e-04  4.97e-05    67.3
   14    -1641.9241116799944393    -3.39e-07  5.46e-06  4.48e-04  2.84e-05    63.3
   15    -1641.9241117408641912    -6.09e-08  1.65e-06  1.20e-04  1.36e-05    62.0
   16    -1641.9241117581318576    -1.73e-08  1.55e-06  1.99e-04  6.70e-06    50.6
   17    -1641.9241117843380380    -2.62e-08  1.14e-06  1.39e-04  5.05e-06    47.8
   18    -1641.9241117777642103     6.57e-09  2.36e-06  2.64e-04  1.28e-06    41.7
                 **** Energy Check signals convergence ****

               *****************************************************
               *                     SUCCESS                       *
               *           SCF CONVERGED AFTER  18 CYCLES          *
               *****************************************************

Recomputing exchange energy using gridx3       ... done (  197.868 sec)
Old exchange energy                            :    -38.886170136 Eh
New exchange energy                            :    -38.886178064 Eh
Exchange energy change after final integration :     -0.000007929 Eh
Total energy after final integration           :  -1641.924119706 Eh
             **** ENERGY FILE WAS UPDATED (hbqdcp-es.en.tmp) ****

----------------
TOTAL SCF ENERGY
----------------

Total Energy       :      -1641.92411970633111 Eh          -44679.02674 eV

Components:
Nuclear Repulsion  :       3278.29850186517388 Eh           89207.03743 eV
Electronic Energy  :      -4920.10780751053426 Eh         -133882.93992 eV
One Electron Energy:      -8738.40446915999019 Eh         -237784.07431 eV
Two Electron Energy:       3818.29666164945593 Eh          103901.13440 eV
CPCM Dielectric    :         -0.11480613240381 Eh              -3.12403 eV

Virial components:
Potential Energy   :      -3276.72917114590109 Eh          -89164.33377 eV
Kinetic Energy     :       1634.80505143956975 Eh           44485.30704 eV
Virial Ratio       :          2.00435468942336

DFT components:
N(Alpha)           :      109.000108228090 electrons
[...]
    6    -1641.9241071974279293    -5.59e-09  2.33e-06  3.19e-04  6.02e-06    44.3
                 **** Energy Check signals convergence ****

               *****************************************************
               *                     SUCCESS                       *
               *           SCF CONVERGED AFTER   6 CYCLES          *
               *****************************************************

Recomputing exchange energy using gridx3       ... done (  197.585 sec)
Old exchange energy                            :    -38.886146453 Eh
New exchange energy                            :    -38.886154561 Eh
Exchange energy change after final integration :     -0.000008108 Eh
Total energy after final integration           :  -1641.924115305 Eh
             **** ENERGY FILE WAS UPDATED (hbqdcp-es.en.tmp) ****

----------------
TOTAL SCF ENERGY
----------------

Total Energy       :      -1641.92411530517325 Eh          -44679.02662 eV

Components:
Nuclear Repulsion  :       3278.26951255204449 Eh           89206.24859 eV
Electronic Energy  :      -4920.07880834711614 Eh         -133882.15081 eV
One Electron Energy:      -8738.34379858722423 Eh         -237782.42338 eV
Two Electron Energy:       3818.26499024010764 Eh          103900.27257 eV
CPCM Dielectric    :         -0.11481140235607 Eh              -3.12418 eV

Virial components:
Potential Energy   :      -3276.72890561476743 Eh          -89164.32655 eV
Kinetic Energy     :       1634.80479030959418 Eh           44485.29993 eV
Virial Ratio       :          2.00435484715838

DFT components:
N(Alpha)           :      109.000109762974 electrons
N(Beta)            :      109.000109762974 electrons
N(Total)           :      218.000219525948 electrons
E(X)               :     -154.587991980821 Eh       
E(C)               :       -9.732224080509 Eh       
E(XC)              :     -164.320216061330 Eh       

CPCM Solvation Model Properties:
Surface-charge          :         -1.03630793937205
Corrected charge        :         -1.00000000000000
Outlying charge corr.   :          0.00006468954458 Eh               0.00176 eV
Free-energy (cav+disp)  :  This term is not implemented in the current solvation scheme

---------------
SCF CONVERGENCE
---------------

  Last Energy change         ...    5.5943e-09  Tolerance :   1.0000e-08
  Last MAX-Density change    ...    3.1854e-04  Tolerance :   1.0000e-07
  Last RMS-Density change    ...    2.3327e-06  Tolerance :   5.0000e-09
  Last DIIS Error            ...    7.4142e-04  Tolerance :   5.0000e-07
  Last Orbital Gradient      ...    6.0163e-06  Tolerance :   1.0000e-05
  Last Orbital Rotation      ...    1.1721e-04  Tolerance :   1.0000e-05


Total SCF time: 0 days 0 hours 11 min 2 sec 
Finished LeanSCF after 664.6 sec

Maximum memory used throughout the entire LEANSCF-calculation: 274.4 MB

------------------------------------------------------------------------------
                         ORCA PROPERTY INTEGRAL CALCULATIONS
------------------------------------------------------------------------------

GBWName                                   ... hbqdcp-es.gbw
Number of atoms                           ...     53
Number of basis functions                 ...    846
Max core memory                           ...   1024 MB

Dipole integrals                          ... YES
Quadrupole integrals                      ...  NO
Linear momentum integrals                 ... YES
Angular momentum integrals                ... YES
Higher moments length integrals           ...  NO
Higher moments velocity integrals         ...  NO
Kinetic energy integrals                  ...  NO
GIAO right hand sides                     ...  NO
GIAO dipole derivative integrals          ...  NO
SOC integrals                             ...  NO
EPR diamagnetic integrals (GIAO)          ...  NO
EPR gauge integrals                       ...  NO
Field gradient integrals                  ...  NO (   0 nuclei)
Spin-dipole/Fermi contact integrals       ...  NO (   0 nuclei)
Contact density integrals                 ...  NO (   0 nuclei)
Nucleus-orbit integrals                   ...  NO (   0 nuclei)
Geometric perturbations                   ...  NO (  53 nuclei)

Choice of electric origin   ... Center of mass
Position of electric origin ... ( -3.1141,  3.1749,  2.1372) 
Choice of magnetic origin   ... GIAO
Position of magnetic origin ... (  0.0000,  0.0000,  0.0000) 

Calculating integrals                     ... Electric Dipole (Length)     done (  0.2 sec)
Calculating integrals                     ... Linear Momentum              done (  0.3 sec)
Calculating integrals                     ... Angular Momentum  (ElOri)    done (  0.3 sec)

Property integrals calculated in   0.9 sec

Maximum memory used throughout the entire PROPINT-calculation: 141.0 MB
------------------------------------------------------------------------------
                        ORCA TD-DFT/TDA CALCULATION
------------------------------------------------------------------------------

Input orbitals are from        ... hbqdcp-es.gbw
CI-vector output               ... hbqdcp-es.cis
Solver                         ... FN-2001
Tamm-Dancoff approximation     ... operative
CIS-Integral strategy          ... AO-integrals
Integral handling              ... AO integral Direct
Max. core memory used          ... 512 MB
Reference state                ... RHF
Generation of triplets         ... off
Follow IRoot                   ... off
Number of operators            ... 1
Orbital ranges used for CIS calculation:
 Operator 0:  Orbitals  33...108  to 109...845
XAS localization array:
 Operator 0:  Orbitals  -1... -1

-------------------
XC-INTEGRATION GRID
-------------------

General Integration Accuracy     IntAcc      ... 3.467
Radial Grid Type                 RadialGrid  ... OptM3 with GC (2021)
Angular Grid (max. ang.)         AngularGrid ... 1 (Lebedev-50)
Angular grid pruning method      GridPruning ... 4 (adaptive)
Weight generation scheme         WeightScheme... mBecke (2022)
Basis function cutoff            BFCut       ... 1.0000e-11
Integration weight cutoff        WCut        ... 1.0000e-14
Partially contracted basis set               ... off
Rotationally invariant grid construction     ... off
Angular grids for H and He will be reduced by one unit

Total number of grid points                  ...    36759
Total number of batches                      ...      601
Average number of points per batch           ...       61
Average number of grid points per atom       ...      694

---------------------
COSX-INTEGRATION GRID
---------------------

General Integration Accuracy     IntAcc      ... 3.067
Radial Grid Type                 RadialGrid  ... OptM3 with GC (2021)
Angular Grid (max. ang.)         AngularGrid ... 1 (Lebedev-50)
Angular grid pruning method      GridPruning ... 4 (adaptive)
Weight generation scheme         WeightScheme... mBecke (2022)
Basis function cutoff            BFCut       ... 1.0000e-11
Integration weight cutoff        WCut        ... 1.0000e-14
Partially contracted basis set               ... on
Rotationally invariant grid construction     ... off
Angular grids for H and He will be reduced by one unit

Total number of grid points                  ...    17574
Total number of batches                      ...      171
Average number of points per batch           ...      102
Average number of grid points per atom       ...      332

---------------
TD-DFT XC SETUP
---------------

DFT calculation                         ... on
Name of the grid file                   ... hbqdcp-es.grid_cis.tmp
RI-approximation                        ... on
Aux-basis dimension                     ... 2601
Exchange functional (TD-DFT)            ... B88
   X-Alpha parameter    XAlpha (TD-DFT) ...  0.666667
   Becke's b parameter  XBeta (TD-DFT)  ...  0.004200
Correlation functional (TD-DFT)         ... LYP
 LDA part of GGA corr.  LDAOpt (TD-DFT) ... VWN-3
Hybrid DFT                              ... on
   Exchange mixing (TD-DFT)             ...  0.200
   GGA exch. scaling (TD-DFT)           ...  0.720
   GGA corr. scaling (TD-DFT)           ...  0.810

Building densities             ... done
Calculating rho(r) on the grid ... done
Building xc-kernel on the grid ... done
                    *** TD-DFT CALCULATION INITIALIZED ***

-----------------------------
    LR-CPCM (equilibrium)
-----------------------------

Setting up LR-CPCM             ... done

------------------------
DAVIDSON-DIAGONALIZATION
------------------------

Dimension of the eigenvalue problem            ...  56012
Number of roots to be determined               ...      3
Maximum size of the expansion space            ...     30
Maximum number of iterations                   ...    100
Convergence tolerance for the residual         ...    2.500e-07
Convergence tolerance for the energies         ...    2.500e-07
Orthogonality tolerance                        ...    1.000e-14
Level Shift                                    ...    0.000e+00
Constructing the preconditioner                ... o.k.
Building the initial guess                     ... o.k.
Number of trial vectors determined             ...     30


                       ****Iteration    0****
   Time for iteration     :  TOTAL=133.0 TRAFO=0.3 RIJ=20.1 COSX=45.3 XC=15.1
   Size of expansion space: 9
   Lowest Energy          :     0.015840647085
   Maximum Energy change  :     0.107146065816 (vector 2)
   Maximum residual norm  :     0.008520820663

                       ****Iteration    1****
   Time for iteration     :  TOTAL=79.3 TRAFO=0.1 RIJ=13.6 COSX=29.8 XC=4.5
   Size of expansion space: 12
   Lowest Energy          :     0.014598070933
   Maximum Energy change  :     0.009482989973 (vector 1)
   Maximum residual norm  :     0.000536312612

                       ****Iteration    2****
   Time for iteration     :  TOTAL=79.6 TRAFO=0.1 RIJ=13.6 COSX=30.0 XC=4.5
   Size of expansion space: 15
   Lowest Energy          :     0.014520671215
   Maximum Energy change  :     0.000576946549 (vector 1)
   Maximum residual norm  :     0.000034893177

                       ****Iteration    3****
   Time for iteration     :  TOTAL=79.9 TRAFO=0.1 RIJ=13.7 COSX=30.2 XC=4.5
   Size of expansion space: 18
   Lowest Energy          :     0.014517318755
   Maximum Energy change  :     0.000056920856 (vector 2)
   Maximum residual norm  :     0.000006647254

                       ****Iteration    4****
   Time for iteration     :  TOTAL=80.0 TRAFO=0.1 RIJ=13.7 COSX=30.3 XC=4.5
   Size of expansion space: 21
   Lowest Energy          :     0.014517102401
   Maximum Energy change  :     0.000011078373 (vector 2)
   Maximum residual norm  :     0.000001782022

                       ****Iteration    5****
   Time for iteration     :  TOTAL=80.7 TRAFO=0.1 RIJ=13.7 COSX=30.3 XC=4.6
   Size of expansion space: 24
   Lowest Energy          :     0.014517095395
   Maximum Energy change  :     0.000003778563 (vector 2)
   Maximum residual norm  :     0.000000378225

                       ****Iteration    6****
   Time for iteration     :  TOTAL=80.6 TRAFO=0.1 RIJ=13.8 COSX=30.5 XC=4.6
   Size of expansion space: 27
   Lowest Energy          :     0.014517094985
   Maximum Energy change  :     0.000000410438 (vector 2)
   Maximum residual norm  :     0.000000054410

      *** CONVERGENCE OF RESIDUAL NORM REACHED ***

Storing the converged CI vectors               ... hbqdcp-es.cis1

                 *** DAVIDSON DONE ***

Total time for solving the CIS problem:   636.553sec

------------------------------------
TD-DFT/TDA EXCITED STATES (SINGLETS)
------------------------------------

the weight of the individual excitations are printed if larger than 1.0e-02

STATE  1:  E=   0.014517 au      0.395 eV     3186.1 cm**-1 <S**2> =   0.000000 Mult 1
   108a -> 109a  :     0.976609 (c=  0.98823507)
   108a -> 110a  :     0.017661 (c= -0.13289568)

STATE  2:  E=   0.067047 au      1.824 eV    14715.2 cm**-1 <S**2> =   0.000000 Mult 1
   105a -> 109a  :     0.021588 (c=  0.14692969)
   108a -> 109a  :     0.017343 (c= -0.13169288)
   108a -> 110a  :     0.924082 (c= -0.96129193)

STATE  3:  E=   0.103365 au      2.813 eV    22686.0 cm**-1 <S**2> =   0.000000 Mult 1
   105a -> 109a  :     0.033972 (c=  0.18431563)
   106a -> 109a  :     0.016491 (c=  0.12841813)
   108a -> 111a  :     0.922513 (c=  0.96047537)


-----------------------------
TD-DFT/TDA-EXCITATION SPECTRA
-----------------------------

Center of mass = ( -3.1141,  3.1749,  2.1372)
Generating CIS transition densities           ... done

----------------------------------------------------------------------------------------------------
                     ABSORPTION SPECTRUM VIA TRANSITION ELECTRIC DIPOLE MOMENTS    
----------------------------------------------------------------------------------------------------
     Transition      Energy     Energy  Wavelength fosc(D2)      D2        DX        DY        DZ   
                      (eV)      (cm-1)    (nm)                 (au**2)    (au)      (au)      (au)  
----------------------------------------------------------------------------------------------------
  0-1A  ->  1-1A    0.395030    3186.1  3138.6   0.000820699   0.08480   0.21129   0.14626   0.13698
  0-1A  ->  2-1A    1.824449   14715.2   679.6   0.425516433   9.51977  -2.44847  -1.84484  -0.34832
  0-1A  ->  3-1A    2.812704   22686.0   440.8   0.066462574   0.96448  -0.83922  -0.30071  -0.41204

----------------------------------------------------------------------------------------------------
                     ABSORPTION SPECTRUM VIA TRANSITION VELOCITY DIPOLE MOMENTS    
----------------------------------------------------------------------------------------------------
     Transition      Energy     Energy  Wavelength fosc(P2)      P2        PX        PY        PZ   
                      (eV)      (cm-1)    (nm)                 (au**2)    (au)      (au)      (au)  
----------------------------------------------------------------------------------------------------
  0-1A  ->  1-1A    0.395030    3186.1  3138.6   0.008581714   0.00019   0.00550   0.01174  -0.00433
  0-1A  ->  2-1A    1.824449   14715.2   679.6   0.026660049   0.00268   0.01840   0.04133   0.02519
  0-1A  ->  3-1A    2.812704   22686.0   440.8   0.024395058   0.00378   0.04703   0.03503   0.01852

------------------------------------------------------------------------------------------
                     CD SPECTRUM VIA TRANSITION ELECTRIC DIPOLE MOMENTS    
------------------------------------------------------------------------------------------
     Transition      Energy     Energy  Wavelength    R        MX        MY        MZ   
                      (eV)      (cm-1)    (nm)   (1e40*cgs)   (au)      (au)      (au)  
------------------------------------------------------------------------------------------
  0-1A  ->  1-1A    0.395030    3186.1  3138.6   27.03251   0.37805  -0.55882  -0.40503
  0-1A  ->  2-1A    1.824449   14715.2   679.6  -43.19977  -0.07975   0.03580   0.10793
  0-1A  ->  3-1A    2.812704   22686.0   440.8  -35.74128  -0.06049  -0.00248  -0.05899

------------------------------------------------------------------------------------------
                     CD SPECTRUM VIA TRANSITION VELOCITY DIPOLE MOMENTS    
------------------------------------------------------------------------------------------
     Transition      Energy     Energy  Wavelength    R        MX        MY        MZ   
                      (eV)      (cm-1)    (nm)   (1e40*cgs)   (au)      (au)      (au)  
------------------------------------------------------------------------------------------
  0-1A  ->  1-1A    0.395030    3186.1  3138.6  -88.56637   0.37805  -0.55882  -0.40503
  0-1A  ->  2-1A    1.824449   14715.2   679.6   19.20067  -0.07975   0.03580   0.10793
  0-1A  ->  3-1A    2.812704   22686.0   440.8  -18.35275  -0.06049  -0.00248  -0.05899

Total run time:      640.953 sec

           *** ORCA-CIS/TD-DFT FINISHED WITHOUT ERROR ***
-----------------------
CIS/TD-DFT TOTAL ENERGY
-----------------------

    E(SCF)  =  -1641.924115305 Eh
    DE(CIS) =      0.014517095 Eh (Root  1)
    ----------------------------- ---------
    E(tot)  =  -1641.909598210 Eh


------------------------
TD-DFT GRADIENT XC SETUP
------------------------

Building densities                     ... done
Calculating rho(r) on the grid         ... done
Building xc-kernel on the grid         ... done
Building xc 3rd derivative on the grid ... done
                *** TD-DFT GRADIENT CALCULATION INITIALIZED ***

--------------------------
TD-DFT/TDA RELAXED DENSITY
--------------------------

Reference wavefunction             ... RHF
State of interest                  ... 1
Basis dimension                    ... 846
DFT-XC contribution needed         ... YES
RI-approximation                   ... YES
Do Coulomb                         ... YES
Do Exchange                        ... YES
Need Hartree-Fock Exchange         ... YES
facj, facx                         ...  2.000, -0.200
Conventional                       ... NO
Range separation                   ... NO
Triplet state                      ... NO
Spin Flip                          ... NO
CIS-vectors being read from        ... hbqdcp-es.cis
 => Number of Vectors found: 3
 => Orbital Window: 33...108 -> 109...845

Reading the CIS file                     ... done
Norm of the CI vector                    ... 1.000000000
Reading the CPCM file                    ... done
Making the CIS (pseudo)densities         ... done
Making operators G(D) and Q(T)           ... (SHARK-ok)done
Transforming the Fock operators          ... done
Making the frozen-core relaxed density   ... done
Constructing the G(H) operator           ... (SHARK-ok)done
Transforming the G(H) operator           ... done
Calculating the CIS Lagrangian           ... done
Solving the Z-vector equations           ... 

Using XC Grid                  ... (hbqdcp-es.grid_cpscf.tmp) 
Recalculating density on grid  ... (hbqdcp-es.grho_cpscf0.tmp) done
Calculating the xc-kernel      ... (hbqdcp-es.fxc_cpscf0.tmp) done

-------------------
SHARK CP-SCF DRIVER
-------------------

Dimension of the orbital basis          ...    846
Dimension of the CPSCF-problem          ...  80333
Number of operators                     ...      1
Max. number of iterations               ...    128
Convergence Tolerance                   ... 1.0e-04
Number of perturbations                 ...      1
Perturbation type                       ... REAL

----------------------------
POPLE LINEAR EQUATION SOLVER
----------------------------

  ITERATION   0:   ||err||_max =   4.2200e+00 (  59.3 sec)
  ITERATION   1:   ||err||_max =   1.3657e-01 (  58.9 sec)
  ITERATION   2:   ||err||_max =   9.2774e-02 (  58.5 sec)
  ITERATION   3:   ||err||_max =   7.0770e-02 (  59.3 sec)
  ITERATION   4:   ||err||_max =   2.9455e-02 (  59.4 sec)
  ITERATION   5:   ||err||_max =   1.0445e-02 (  59.5 sec)
  ITERATION   6:   ||err||_max =   4.2410e-03 (  60.3 sec)
  ITERATION   7:   ||err||_max =   1.3671e-03 (  60.3 sec)
  ITERATION   8:   ||err||_max =   5.6352e-04 (  60.5 sec)
  ITERATION   9:   ||err||_max =   2.3614e-04 (  60.6 sec)
  ITERATION  10:   ||err||_max =   9.7879e-05 (  60.6 sec)

Finalizing the relaxed density           ... done
Storing the relaxed density              ... done
Constructing the G(Z) operator           ... (SHARK-ok)done
Adding the CPCM contribution             ... done
Adding the XC terms                      ... done
Transforming the G(Z) operator           ... done
Making the W-matrix                      ... done
Finalizing the W-matrix                  ... done
Transforming the W-matrix                ... done
Nuc. rep. gradient        (SHARK) ... done (  0.0 sec)
HCore & Overlap gradient  (SHARK) ... done (  6.8 sec)
Split-RIJ-J gradient      (SHARK) ... done ( 39.3 sec)
COSX-gradient                     ... 