 Entering Gaussian System, Link 0=g16
 Initial command:
 /sw/cluster/pub/apps//g16/l1.exe "/data/mmaximo/28051/Gau-920913.inp" -scrdir="/data/mmaximo/28051/"
 Entering Link 1 = /sw/cluster/pub/apps//g16/l1.exe PID=    920916.
  
 Copyright (c) 1988,1990,1992,1993,1995,1998,2003,2009,2016,
            Gaussian, Inc.  All Rights Reserved.
  
 This is part of the Gaussian(R) 16 program.  It is based on
 the Gaussian(R) 09 system (copyright 2009, Gaussian, Inc.),
 the Gaussian(R) 03 system (copyright 2003, Gaussian, Inc.),
 the Gaussian(R) 98 system (copyright 1998, Gaussian, Inc.),
 the Gaussian(R) 94 system (copyright 1995, Gaussian, Inc.),
 the Gaussian 92(TM) system (copyright 1992, Gaussian, Inc.),
 the Gaussian 90(TM) system (copyright 1990, Gaussian, Inc.),
 the Gaussian 88(TM) system (copyright 1988, Gaussian, Inc.),
 the Gaussian 86(TM) system (copyright 1986, Carnegie Mellon
 University), and the Gaussian 82(TM) system (copyright 1983,
 Carnegie Mellon University). Gaussian is a federally registered
 trademark of Gaussian, Inc.
  
 This software contains proprietary and confidential information,
 including trade secrets, belonging to Gaussian, Inc.
  
 This software is provided under written license and may be
 used, copied, transmitted, or stored only in accord with that
 written license.
  
 The following legend is applicable only to US Government
 contracts under FAR:
  
                    RESTRICTED RIGHTS LEGEND
  
 Use, reproduction and disclosure by the US Government is
 subject to restrictions as set forth in subparagraphs (a)
 and (c) of the Commercial Computer Software - Restricted
 Rights clause in FAR 52.227-19.
  
 Gaussian, Inc.
 340 Quinnipiac St., Bldg. 40, Wallingford CT 06492
  
  
 ---------------------------------------------------------------
 Warning -- This program may not be used in any manner that
 competes with the business of Gaussian, Inc. or will provide
 assistance to any competitor of Gaussian, Inc.  The licensee
 of this program is prohibited from giving any competitor of
 Gaussian, Inc. access to this program.  By using this program,
 the user acknowledges that Gaussian, Inc. is engaged in the
 business of creating and licensing software in the field of
 computational chemistry and represents and warrants to the
 licensee that it is not a competitor of Gaussian, Inc. and that
 it will not use this program in any manner prohibited above.
 ---------------------------------------------------------------
  

 Cite this work as:
 Gaussian 16, Revision A.03,
 M. J. Frisch, G. W. Trucks, H. B. Schlegel, G. E. Scuseria, 
 M. A. Robb, J. R. Cheeseman, G. Scalmani, V. Barone, 
 G. A. Petersson, H. Nakatsuji, X. Li, M. Caricato, A. V. Marenich, 
 J. Bloino, B. G. Janesko, R. Gomperts, B. Mennucci, H. P. Hratchian, 
 J. V. Ortiz, A. F. Izmaylov, J. L. Sonnenberg, D. Williams-Young, 
 F. Ding, F. Lipparini, F. Egidi, J. Goings, B. Peng, A. Petrone, 
 T. Henderson, D. Ranasinghe, V. G. Zakrzewski, J. Gao, N. Rega, 
 G. Zheng, W. Liang, M. Hada, M. Ehara, K. Toyota, R. Fukuda, 
 J. Hasegawa, M. Ishida, T. Nakajima, Y. Honda, O. Kitao, H. Nakai, 
 T. Vreven, K. Throssell, J. A. Montgomery, Jr., J. E. Peralta, 
 F. Ogliaro, M. J. Bearpark, J. J. Heyd, E. N. Brothers, K. N. Kudin, 
 V. N. Staroverov, T. A. Keith, R. Kobayashi, J. Normand, 
 K. Raghavachari, A. P. Rendell, J. C. Burant, S. S. Iyengar, 
 J. Tomasi, M. Cossi, J. M. Millam, M. Klene, C. Adamo, R. Cammi, 
 J. W. Ochterski, R. L. Martin, K. Morokuma, O. Farkas, 
 J. B. Foresman, and D. J. Fox, Gaussian, Inc., Wallingford CT, 2016.
 
 ******************************************
 Gaussian 16:  ES64L-G16RevA.03 25-Dec-2016
                20-Jan-2025 
 ******************************************
 %chk=C6H4O2.chk
 -------------------------
 # opt freq b3lyp def2tzvp
 -------------------------
 1/18=20,19=15,26=3,38=1/1,3;
 2/9=110,12=2,17=6,18=5,40=1/2;
 3/5=44,7=101,11=2,25=1,30=1,71=1,74=-5/1,2,3;
 4//1;
 5/5=2,38=5/2;
 6/7=2,8=2,9=2,10=2,28=1/1;
 7//1,2,3,16;
 1/18=20,19=15,26=3/3(2);
 2/9=110/2;
 99//99;
 2/9=110/2;
 3/5=44,7=101,11=2,25=1,30=1,71=1,74=-5/1,2,3;
 4/5=5,16=3,69=1/1;
 5/5=2,38=5/2;
 7//1,2,3,16;
 1/18=20,19=15,26=3/3(-5);
 2/9=110/2;
 6/7=2,8=2,9=2,10=2,19=2,28=1/1;
 99/9=1/99;
 --------
 opt meta
 --------
 Symbolic Z-matrix:
 Charge =  0 Multiplicity = 1
 C                     0.02571   1.44286   0.01901 
 C                     1.35706   0.66885   0.02042 
 C                     1.3532   -0.68603  -0.0091 
 C                     0.01746  -1.45164  -0.04405 
 C                    -1.3139   -0.67763  -0.04545 
 C                    -1.31003   0.67724  -0.01594 
 H                     2.28514   1.2008    0.0447 
 H                     2.27823  -1.22381  -0.00812 
 H                    -2.23507   1.21503  -0.01692 
 O                     0.01387  -2.70974  -0.07146 
 O                     0.0293    2.70096   0.04642 
 C                    -2.64964  -1.44324  -0.0804 
 O                    -2.65323  -2.70134  -0.10781 
 O                    -3.8859   -0.72452  -0.08171 
 H                    -4.56256  -1.25095   0.35027 
 

 GradGradGradGradGradGradGradGradGradGradGradGradGradGradGradGradGradGrad
 Berny optimization.
 Initialization pass.
                           ----------------------------
                           !    Initial Parameters    !
                           ! (Angstroms and Degrees)  !
 --------------------------                            --------------------------
 ! Name  Definition              Value          Derivative Info.                !
 --------------------------------------------------------------------------------
 ! R1    R(1,2)                  1.54           estimate D2E/DX2                !
 ! R2    R(1,6)                  1.54           estimate D2E/DX2                !
 ! R3    R(1,11)                 1.2584         estimate D2E/DX2                !
 ! R4    R(2,3)                  1.3552         estimate D2E/DX2                !
 ! R5    R(2,7)                  1.07           estimate D2E/DX2                !
 ! R6    R(3,4)                  1.54           estimate D2E/DX2                !
 ! R7    R(3,8)                  1.07           estimate D2E/DX2                !
 ! R8    R(4,5)                  1.54           estimate D2E/DX2                !
 ! R9    R(4,10)                 1.2584         estimate D2E/DX2                !
 ! R10   R(5,6)                  1.3552         estimate D2E/DX2                !
 ! R11   R(5,12)                 1.54           estimate D2E/DX2                !
 ! R12   R(6,9)                  1.07           estimate D2E/DX2                !
 ! R13   R(12,13)                1.2584         estimate D2E/DX2                !
 ! R14   R(12,14)                1.43           estimate D2E/DX2                !
 ! R15   R(14,15)                0.96           estimate D2E/DX2                !
 ! A1    A(2,1,6)              120.0            estimate D2E/DX2                !
 ! A2    A(2,1,11)             120.0            estimate D2E/DX2                !
 ! A3    A(6,1,11)             120.0            estimate D2E/DX2                !
 ! A4    A(1,2,3)              120.0            estimate D2E/DX2                !
 ! A5    A(1,2,7)              120.0            estimate D2E/DX2                !
 ! A6    A(3,2,7)              120.0            estimate D2E/DX2                !
 ! A7    A(2,3,4)              120.0            estimate D2E/DX2                !
 ! A8    A(2,3,8)              120.0            estimate D2E/DX2                !
 ! A9    A(4,3,8)              120.0            estimate D2E/DX2                !
 ! A10   A(3,4,5)              120.0            estimate D2E/DX2                !
 ! A11   A(3,4,10)             120.0            estimate D2E/DX2                !
 ! A12   A(5,4,10)             120.0            estimate D2E/DX2                !
 ! A13   A(4,5,6)              120.0            estimate D2E/DX2                !
 ! A14   A(4,5,12)             120.0            estimate D2E/DX2                !
 ! A15   A(6,5,12)             120.0            estimate D2E/DX2                !
 ! A16   A(1,6,5)              120.0            estimate D2E/DX2                !
 ! A17   A(1,6,9)              120.0            estimate D2E/DX2                !
 ! A18   A(5,6,9)              120.0            estimate D2E/DX2                !
 ! A19   A(5,12,13)            120.0            estimate D2E/DX2                !
 ! A20   A(5,12,14)            120.0            estimate D2E/DX2                !
 ! A21   A(13,12,14)           120.0            estimate D2E/DX2                !
 ! A22   A(12,14,15)           109.4712         estimate D2E/DX2                !
 ! D1    D(6,1,2,3)              0.0001         estimate D2E/DX2                !
 ! D2    D(6,1,2,7)           -179.9999         estimate D2E/DX2                !
 ! D3    D(11,1,2,3)          -179.9999         estimate D2E/DX2                !
 ! D4    D(11,1,2,7)             0.0            estimate D2E/DX2                !
 ! D5    D(2,1,6,5)             -0.0001         estimate D2E/DX2                !
 ! D6    D(2,1,6,9)           -179.9998         estimate D2E/DX2                !
 ! D7    D(11,1,6,5)           180.0            estimate D2E/DX2                !
 ! D8    D(11,1,6,9)             0.0002         estimate D2E/DX2                !
 ! D9    D(1,2,3,4)              0.0            estimate D2E/DX2                !
 ! D10   D(1,2,3,8)           -180.0            estimate D2E/DX2                !
 ! D11   D(7,2,3,4)           -180.0            estimate D2E/DX2                !
 ! D12   D(7,2,3,8)              0.0            estimate D2E/DX2                !
 ! D13   D(2,3,4,5)             -0.0001         estimate D2E/DX2                !
 ! D14   D(2,3,4,10)           179.9999         estimate D2E/DX2                !
 ! D15   D(8,3,4,5)            179.9999         estimate D2E/DX2                !
 ! D16   D(8,3,4,10)            -0.0001         estimate D2E/DX2                !
 ! D17   D(3,4,5,6)              0.0001         estimate D2E/DX2                !
 ! D18   D(3,4,5,12)          -180.0            estimate D2E/DX2                !
 ! D19   D(10,4,5,6)          -179.9999         estimate D2E/DX2                !
 ! D20   D(10,4,5,12)            0.0001         estimate D2E/DX2                !
 ! D21   D(4,5,6,1)              0.0            estimate D2E/DX2                !
 ! D22   D(4,5,6,9)            179.9998         estimate D2E/DX2                !
 ! D23   D(12,5,6,1)          -180.0            estimate D2E/DX2                !
 ! D24   D(12,5,6,9)            -0.0002         estimate D2E/DX2                !
 ! D25   D(4,5,12,13)            0.0            estimate D2E/DX2                !
 ! D26   D(4,5,12,14)         -180.0            estimate D2E/DX2                !
 ! D27   D(6,5,12,13)          180.0            estimate D2E/DX2                !
 ! D28   D(6,5,12,14)            0.0            estimate D2E/DX2                !
 ! D29   D(5,12,14,15)        -150.0            estimate D2E/DX2                !
 ! D30   D(13,12,14,15)         30.0            estimate D2E/DX2                !
 --------------------------------------------------------------------------------
 Trust Radius=3.00D-01 FncErr=1.00D-07 GrdErr=1.00D-06 EigMax=2.50D+02 EigMin=1.00D-04
 Number of steps in this run=     77 maximum allowed number of steps=    100.
 GradGradGradGradGradGradGradGradGradGradGradGradGradGradGradGradGradGrad

                          Input orientation:                          
 ---------------------------------------------------------------------
 Center     Atomic      Atomic             Coordinates (Angstroms)
 Number     Number       Type             X           Y           Z
 ---------------------------------------------------------------------
      1          6           0        0.025709    1.442860    0.019011
      2          6           0        1.357063    0.668847    0.020420
      3          6           0        1.353199   -0.686026   -0.009097
      4          6           0        0.017455   -1.451642   -0.044048
      5          6           0       -1.313898   -0.677629   -0.045455
      6          6           0       -1.310035    0.677244   -0.015938
      7          1           0        2.285144    1.200800    0.044704
      8          1           0        2.278230   -1.223814   -0.008118
      9          1           0       -2.235066    1.215032   -0.016920
     10          8           0        0.013868   -2.709738   -0.071458
     11          8           0        0.029297    2.700956    0.046418
     12          6           0       -2.649642   -1.443244   -0.080405
     13          8           0       -2.653229   -2.701341   -0.107813
     14          8           0       -3.885899   -0.724518   -0.081712
     15          1           0       -4.562557   -1.250947    0.350267
 ---------------------------------------------------------------------
                    Distance matrix (angstroms):
                    1          2          3          4          5
     1  C    0.000000
     2  C    1.540000   0.000000
     3  C    2.509019   1.355200   0.000000
     4  C    2.895200   2.509019   1.540000   0.000000
     5  C    2.509019   2.991884   2.667358   1.540000   0.000000
     6  C    1.540000   2.667358   2.991884   2.509019   1.355200
     7  H    2.272510   1.070000   2.105120   3.490808   4.060755
     8  H    3.490808   2.105120   1.070000   2.272510   3.633607
     9  H    2.272510   3.633607   4.060755   3.490808   2.105120
    10  O    4.153600   3.636956   2.427572   1.258400   2.427572
    11  O    1.258400   2.427572   3.636956   4.153600   3.636956
    12  C    3.936621   4.530428   4.074457   2.667358   1.540000
    13  O    4.936314   5.239947   4.485834   2.949300   2.427572
    14  O    4.473069   5.425914   5.239742   3.970680   2.572683
    15  H    5.330901   6.231878   5.953524   4.601334   3.322510
                    6          7          8          9         10
     6  C    0.000000
     7  H    3.633607   0.000000
     8  H    4.060755   2.425200   0.000000
     9  H    1.070000   4.520653   5.130097   0.000000
    10  O    3.636956   4.523771   2.709118   4.523771   0.000000
    11  O    2.427572   2.709118   4.523771   2.709118   5.412000
    12  C    2.509019   5.599887   4.933285   2.691159   2.949300
    13  O    3.636956   6.295832   5.149011   3.939683   2.667358
    14  O    2.933315   6.465648   6.184755   2.547804   4.376001
    15  H    3.798806   7.279797   6.850222   3.410732   4.821782
                   11         12         13         14         15
    11  O    0.000000
    12  C    4.936314   0.000000
    13  O    6.033618   1.258400   0.000000
    14  O    5.203753   1.430000   2.329803   0.000000
    15  H    6.065887   1.970203   2.441108   0.960000   0.000000
 Stoichiometry    C7H4O4
 Framework group  C1[X(C7H4O4)]
 Deg. of freedom    39
 Full point group                 C1      NOp   1
 Largest Abelian subgroup         C1      NOp   1
 Largest concise Abelian subgroup C1      NOp   1
                         Standard orientation:                         
 ---------------------------------------------------------------------
 Center     Atomic      Atomic             Coordinates (Angstroms)
 Number     Number       Type             X           Y           Z
 ---------------------------------------------------------------------
      1          6           0       -1.947572   -0.830394   -0.000775
      2          6           0       -2.436681    0.629833    0.009598
      3          6           0       -1.539034    1.645114    0.010734
      4          6           0       -0.029870    1.338615    0.001652
      5          6           0        0.459240   -0.121613   -0.008720
      6          6           0       -0.438408   -1.136893   -0.009856
      7          1           0       -3.485256    0.842791    0.015909
      8          1           0       -1.878870    2.659688    0.017942
      9          1           0       -0.098572   -2.151467   -0.017066
     10          8           0        0.803660    2.281375    0.002705
     11          8           0       -2.781101   -1.773154   -0.001831
     12          6           0        1.968404   -0.428112   -0.017801
     13          8           0        2.801934    0.514648   -0.016746
     14          8           0        2.422577   -1.784038   -0.027433
     15          1           0        3.269674   -1.840963    0.420659
 ---------------------------------------------------------------------
 Rotational constants (GHZ):           1.7483225           0.8752368           0.5835194
 Standard basis: def2TZVP (5D, 7F)
 There are   420 symmetry adapted cartesian basis functions of A   symmetry.
 There are   365 symmetry adapted basis functions of A   symmetry.
   365 basis functions,   593 primitive gaussians,   420 cartesian basis functions
    39 alpha electrons       39 beta electrons
       nuclear repulsion energy       546.6546245520 Hartrees.
 NAtoms=   15 NActive=   15 NUniq=   15 SFac= 1.00D+00 NAtFMM=   60 NAOKFM=F Big=F
 Integral buffers will be    131072 words long.
 Raffenetti 2 integral format.
 Two-electron integral symmetry is turned on.
 One-electron integrals computed using PRISM.
   1 Symmetry operations used in ECPInt.
 ECPInt:  NShTT=    9453 NPrTT=   30144 LenC2=    8935 LenP2D=   21602.
 LDataN:  DoStor=T MaxTD1= 6 Len=  172
 NBasis=   365 RedAO= T EigKep=  1.86D-05  NBF=   365
 NBsUse=   365 1.00D-06 EigRej= -1.00D+00 NBFU=   365
 ExpMin= 9.52D-02 ExpMax= 2.70D+04 ExpMxC= 9.22D+02 IAcc=3 IRadAn=         5 AccDes= 0.00D+00
 Harris functional with IExCor=  402 and IRadAn=       5 diagonalized for initial guess.
 HarFok:  IExCor=  402 AccDes= 0.00D+00 IRadAn=         5 IDoV= 1 UseB2=F ITyADJ=14
 ICtDFT=  3500011 ScaDFX=  1.000000  1.000000  1.000000  1.000000
 FoFCou: FMM=F IPFlag=           0 FMFlag=      100000 FMFlg1=           0
         NFxFlg=           0 DoJE=T BraDBF=F KetDBF=T FulRan=T
         wScrn=  0.000000 ICntrl=       500 IOpCl=  0 I1Cent=   200000004 NGrid=           0
         NMat0=    1 NMatS0=      1 NMatT0=    0 NMatD0=    1 NMtDS0=    0 NMtDT0=    0
 Petite list used in FoFCou.
 Requested convergence on RMS density matrix=1.00D-08 within 128 cycles.
 Requested convergence on MAX density matrix=1.00D-06.
 Requested convergence on             energy=1.00D-06.
 No special actions if energy rises.
 Integral accuracy reduced to 1.0D-05 until final iterations.
 Initial convergence to 1.0D-05 achieved.  Increase integral accuracy.
 SCF Done:  E(RB3LYP) =  -570.211684491     A.U. after   16 cycles
            NFock= 16  Conv=0.81D-08     -V/T= 2.0064

 **********************************************************************

            Population analysis using the SCF density.

 **********************************************************************

 Orbital symmetries:
       Occupied  (A) (A) (A) (A) (A) (A) (A) (A) (A) (A) (A) (A)
                 (A) (A) (A) (A) (A) (A) (A) (A) (A) (A) (A) (A)
                 (A) (A) (A) (A) (A) (A) (A) (A) (A) (A) (A) (A)
                 (A) (A) (A)
       Virtual   (A) (A) (A) (A) (A) (A) (A) (A) (A) (A) (A) (A)
                 (A) (A) (A) (A) (A) (A) (A) (A) (A) (A) (A) (A)
                 (A) (A) (A) (A) (A) (A) (A) (A) (A) (A) (A) (A)
                 (A) (A) (A) (A) (A) (A) (A) (A) (A) (A) (A) (A)
                 (A) (A) (A) (A) (A) (A) (A) (A) (A) (A) (A) (A)
                 (A) (A) (A) (A) (A) (A) (A) (A) (A) (A) (A) (A)
                 (A) (A) (A) (A) (A) (A) (A) (A) (A) (A) (A) (A)
                 (A) (A) (A) (A) (A) (A) (A) (A) (A) (A) (A) (A)
                 (A) (A) (A) (A) (A) (A) (A) (A) (A) (A) (A) (A)
                 (A) (A) (A) (A) (A) (A) (A) (A) (A) (A) (A) (A)
                 (A) (A) (A) (A) (A) (A) (A) (A) (A) (A) (A) (A)
                 (A) (A) (A) (A) (A) (A) (A) (A) (A) (A) (A) (A)
                 (A) (A) (A) (A) (A) (A) (A) (A) (A) (A) (A) (A)
                 (A) (A) (A) (A) (A) (A) (A) (A) (A) (A) (A) (A)
                 (A) (A) (A) (A) (A) (A) (A) (A) (A) (A) (A) (A)
                 (A) (A) (A) (A) (A) (A) (A) (A) (A) (A) (A) (A)
                 (A) (A) (A) (A) (A) (A) (A) (A) (A) (A) (A) (A)
                 (A) (A) (A) (A) (A) (A) (A) (A) (A) (A) (A) (A)
                 (A) (A) (A) (A) (A) (A) (A) (A) (A) (A) (A) (A)
                 (A) (A) (A) (A) (A) (A) (A) (A) (A) (A) (A) (A)
                 (A) (A) (A) (A) (A) (A) (A) (A) (A) (A) (A) (A)
                 (A) (A) (A) (A) (A) (A) (A) (A) (A) (A) (A) (A)
                 (A) (A) (A) (A) (A) (A) (A) (A) (A) (A) (A) (A)
                 (A) (A) (A) (A) (A) (A) (A) (A) (A) (A) (A) (A)
                 (A) (A) (A) (A) (A) (A) (A) (A) (A) (A) (A) (A)
                 (A) (A) (A) (A) (A) (A) (A) (A) (A) (A) (A) (A)
                 (A) (A) (A) (A) (A) (A) (A) (A) (A) (A) (A) (A)
                 (A) (A)
 The electronic state is 1-A.
 Alpha  occ. eigenvalues --  -19.19335 -19.16139 -19.15344 -19.14477 -10.35111
 Alpha  occ. eigenvalues --  -10.31782 -10.31551 -10.26351 -10.25064 -10.24110
 Alpha  occ. eigenvalues --  -10.23946  -1.10092  -1.06106  -1.05463  -1.02109
 Alpha  occ. eigenvalues --   -0.87401  -0.82235  -0.72107  -0.68150  -0.64814
 Alpha  occ. eigenvalues --   -0.60910  -0.54497  -0.52113  -0.51892  -0.50107
 Alpha  occ. eigenvalues --   -0.49566  -0.46702  -0.45507  -0.44426  -0.43851
 Alpha  occ. eigenvalues --   -0.43137  -0.41813  -0.40791  -0.34851  -0.32828
 Alpha  occ. eigenvalues --   -0.32349  -0.31638  -0.30067  -0.27542
 Alpha virt. eigenvalues --   -0.15519  -0.08720  -0.03970  -0.00287   0.01276
 Alpha virt. eigenvalues --    0.04065   0.07151   0.08061   0.08730   0.09065
 Alpha virt. eigenvalues --    0.09954   0.11464   0.12385   0.15884   0.16047
 Alpha virt. eigenvalues --    0.16531   0.16665   0.19671   0.20179   0.22243
 Alpha virt. eigenvalues --    0.22585   0.23723   0.25335   0.26191   0.27661
 Alpha virt. eigenvalues --    0.28225   0.28624   0.29233   0.30404   0.30948
 Alpha virt. eigenvalues --    0.32453   0.33906   0.34599   0.35839   0.37207
 Alpha virt. eigenvalues --    0.37583   0.37661   0.39316   0.41329   0.42196
 Alpha virt. eigenvalues --    0.43001   0.43603   0.44808   0.45467   0.45865
 Alpha virt. eigenvalues --    0.47578   0.48123   0.48765   0.51344   0.51749
 Alpha virt. eigenvalues --    0.54864   0.55648   0.56743   0.57210   0.57529
 Alpha virt. eigenvalues --    0.59693   0.60831   0.61328   0.63519   0.63829
 Alpha virt. eigenvalues --    0.65175   0.66836   0.68887   0.69868   0.71032
 Alpha virt. eigenvalues --    0.72501   0.73969   0.75260   0.78694   0.80443
 Alpha virt. eigenvalues --    0.81631   0.82951   0.83476   0.84486   0.85897
 Alpha virt. eigenvalues --    0.86689   0.88342   0.91610   0.93011   0.95090
 Alpha virt. eigenvalues --    0.96270   0.99768   1.00962   1.02378   1.06094
 Alpha virt. eigenvalues --    1.06318   1.08769   1.08868   1.13252   1.14953
 Alpha virt. eigenvalues --    1.16667   1.18455   1.19903   1.21294   1.23191
 Alpha virt. eigenvalues --    1.25469   1.28994   1.30170   1.32513   1.34668
 Alpha virt. eigenvalues --    1.35028   1.37234   1.37909   1.40204   1.41952
 Alpha virt. eigenvalues --    1.43570   1.44708   1.46361   1.50140   1.51636
 Alpha virt. eigenvalues --    1.52840   1.54037   1.55745   1.57116   1.57272
 Alpha virt. eigenvalues --    1.59390   1.63976   1.64626   1.65662   1.66628
 Alpha virt. eigenvalues --    1.69886   1.73047   1.74365   1.76937   1.77854
 Alpha virt. eigenvalues --    1.81599   1.82465   1.84112   1.87079   1.89188
 Alpha virt. eigenvalues --    1.89891   1.91648   1.92757   1.93947   1.94063
 Alpha virt. eigenvalues --    1.96881   1.98932   2.00121   2.01711   2.04712
 Alpha virt. eigenvalues --    2.09050   2.12430   2.13028   2.15556   2.18180
 Alpha virt. eigenvalues --    2.18795   2.20656   2.22160   2.23910   2.31069
 Alpha virt. eigenvalues --    2.33381   2.34095   2.35750   2.38201   2.42643
 Alpha virt. eigenvalues --    2.44131   2.44860   2.49315   2.49882   2.50340
 Alpha virt. eigenvalues --    2.52741   2.53857   2.56637   2.59949   2.61719
 Alpha virt. eigenvalues --    2.63317   2.64658   2.65416   2.66644   2.68306
 Alpha virt. eigenvalues --    2.69520   2.70054   2.70871   2.72839   2.73174
 Alpha virt. eigenvalues --    2.74641   2.79007   2.80902   2.83339   2.83883
 Alpha virt. eigenvalues --    2.86164   2.89303   2.90612   2.91281   2.92702
 Alpha virt. eigenvalues --    2.95353   2.97175   2.98469   2.99777   3.01021
 Alpha virt. eigenvalues --    3.02327   3.04628   3.05755   3.07425   3.08138
 Alpha virt. eigenvalues --    3.10840   3.11205   3.12363   3.13304   3.13788
 Alpha virt. eigenvalues --    3.15750   3.18485   3.19304   3.20570   3.21398
 Alpha virt. eigenvalues --    3.24023   3.25123   3.25260   3.27986   3.30700
 Alpha virt. eigenvalues --    3.32227   3.32501   3.33053   3.33912   3.34742
 Alpha virt. eigenvalues --    3.35775   3.36892   3.41126   3.42483   3.44271
 Alpha virt. eigenvalues --    3.46620   3.47145   3.50327   3.55063   3.55753
 Alpha virt. eigenvalues --    3.59889   3.60582   3.62872   3.64800   3.67409
 Alpha virt. eigenvalues --    3.74102   3.75442   3.78608   3.80546   3.84414
 Alpha virt. eigenvalues --    3.85630   3.86514   3.87708   3.90588   3.94747
 Alpha virt. eigenvalues --    4.01087   4.03481   4.06327   4.06514   4.12999
 Alpha virt. eigenvalues --    4.13797   4.18195   4.23691   4.31181   4.32976
 Alpha virt. eigenvalues --    4.34609   4.37433   4.39789   4.41744   4.51971
 Alpha virt. eigenvalues --    4.55527   4.63388   4.65647   4.74244   4.75872
 Alpha virt. eigenvalues --    4.77159   4.83880   4.92396   5.01755   5.02980
 Alpha virt. eigenvalues --    5.12839   5.14591   5.15576   5.16558   5.17464
 Alpha virt. eigenvalues --    5.18527   5.19030   5.22150   5.26797   5.36470
 Alpha virt. eigenvalues --    5.41770   5.43010   5.44838   5.48493   5.50595
 Alpha virt. eigenvalues --    5.57177   5.61562   5.71090   5.74154   5.80691
 Alpha virt. eigenvalues --    5.93527   5.95372   5.97296   6.16213   6.19629
 Alpha virt. eigenvalues --    6.22354   6.26627   6.29483   6.30512   6.30909
 Alpha virt. eigenvalues --    6.33062   6.40146   6.43857   6.45573   6.50936
 Alpha virt. eigenvalues --    6.57760   6.61351   6.62575   6.73104   6.74416
 Alpha virt. eigenvalues --    6.76426   6.80038   6.90732   6.95200   6.97210
 Alpha virt. eigenvalues --    6.97921   7.02685   7.05213   7.07767   7.18428
 Alpha virt. eigenvalues --   22.09293  22.29472  22.64360  22.73030  22.80137
 Alpha virt. eigenvalues --   22.86381  23.18868  43.66979  43.78406  43.81502
 Alpha virt. eigenvalues --   43.89223
          Condensed to atoms (all electrons):
               1          2          3          4          5          6
     1  C    4.615075   0.278227   0.040525  -0.051582   0.087299   0.181339
     2  C    0.278227   5.385373   0.231290   0.031323  -0.023267  -0.051285
     3  C    0.040525   0.231290   5.298195   0.335627  -0.041125  -0.037277
     4  C   -0.051582   0.031323   0.335627   4.873429  -0.032851   0.042466
     5  C    0.087299  -0.023267  -0.041125  -0.032851   6.296892  -0.034335
     6  C    0.181339  -0.051285  -0.037277   0.042466  -0.034335   5.707870
     7  H   -0.034761   0.404857  -0.036627   0.009365  -0.006861   0.013340
     8  H    0.006966  -0.032358   0.396812  -0.043607   0.021101  -0.006042
     9  H   -0.034017   0.011682  -0.004351   0.005475  -0.031516   0.408835
    10  O   -0.002234   0.008897  -0.078329   0.663739  -0.139384   0.011866
    11  O    0.599898  -0.087592   0.015532  -0.001715   0.019309  -0.093937
    12  C   -0.002171  -0.004890   0.015393  -0.068783   0.133422   0.004046
    13  O    0.000221  -0.000175   0.002042   0.000247  -0.127720   0.001232
    14  O    0.000103  -0.000030   0.000137  -0.003476  -0.151706   0.029777
    15  H   -0.000094   0.000005   0.000004   0.000667   0.020790  -0.003896
               7          8          9         10         11         12
     1  C   -0.034761   0.006966  -0.034017  -0.002234   0.599898  -0.002171
     2  C    0.404857  -0.032358   0.011682   0.008897  -0.087592  -0.004890
     3  C   -0.036627   0.396812  -0.004351  -0.078329   0.015532   0.015393
     4  C    0.009365  -0.043607   0.005475   0.663739  -0.001715  -0.068783
     5  C   -0.006861   0.021101  -0.031516  -0.139384   0.019309   0.133422
     6  C    0.013340  -0.006042   0.408835   0.011866  -0.093937   0.004046
     7  H    0.504403  -0.008404  -0.000019  -0.000234   0.005959   0.000011
     8  H   -0.008404   0.505705   0.000026   0.010471  -0.000166  -0.000049
     9  H   -0.000019   0.000026   0.465866   0.000033   0.005769  -0.012333
    10  O   -0.000234   0.010471   0.000033   7.788516   0.000002   0.009240
    11  O    0.005959  -0.000166   0.005769   0.000002   7.825333  -0.000210
    12  C    0.000011  -0.000049  -0.012333   0.009240  -0.000210   4.564280
    13  O   -0.000003   0.000044   0.000322  -0.028653   0.000002   0.684783
    14  O   -0.000001   0.000003   0.009843  -0.000290   0.000007   0.403805
    15  H    0.000000  -0.000001  -0.000547   0.000126  -0.000001  -0.023828
              13         14         15
     1  C    0.000221   0.000103  -0.000094
     2  C   -0.000175  -0.000030   0.000005
     3  C    0.002042   0.000137   0.000004
     4  C    0.000247  -0.003476   0.000667
     5  C   -0.127720  -0.151706   0.020790
     6  C    0.001232   0.029777  -0.003896
     7  H   -0.000003  -0.000001   0.000000
     8  H    0.000044   0.000003  -0.000001
     9  H    0.000322   0.009843  -0.000547
    10  O   -0.028653  -0.000290   0.000126
    11  O    0.000002   0.000007  -0.000001
    12  C    0.684783   0.403805  -0.023828
    13  O    7.816673  -0.082392   0.004403
    14  O   -0.082392   7.910367   0.284479
    15  H    0.004403   0.284479   0.385899
 Mulliken charges:
               1
     1  C    0.315203
     2  C   -0.152056
     3  C   -0.137848
     4  C    0.239677
     5  C    0.009952
     6  C   -0.174001
     7  H    0.148975
     8  H    0.149498
     9  H    0.174933
    10  O   -0.243766
    11  O   -0.288190
    12  C    0.297283
    13  O   -0.271026
    14  O   -0.400628
    15  H    0.331994
 Sum of Mulliken charges =  -0.00000
 Mulliken charges with hydrogens summed into heavy atoms:
               1
     1  C    0.315203
     2  C   -0.003081
     3  C    0.011650
     4  C    0.239677
     5  C    0.009952
     6  C    0.000932
    10  O   -0.243766
    11  O   -0.288190
    12  C    0.297283
    13  O   -0.271026
    14  O   -0.068634
 Electronic spatial extent (au):  <R**2>=           1765.2741
 Charge=             -0.0000 electrons
 Dipole moment (field-independent basis, Debye):
    X=             -1.3848    Y=             -0.8208    Z=              0.7332  Tot=              1.7689
 Quadrupole moment (field-independent basis, Debye-Ang):
   XX=            -64.4008   YY=            -67.2943   ZZ=            -60.7593
   XY=            -18.5185   XZ=              2.7418   YZ=             -1.4960
 Traceless Quadrupole moment (field-independent basis, Debye-Ang):
   XX=             -0.2493   YY=             -3.1428   ZZ=              3.3922
   XY=            -18.5185   XZ=              2.7418   YZ=             -1.4960
 Octapole moment (field-independent basis, Debye-Ang**2):
  XXX=             28.3178  YYY=             -5.9715  ZZZ=              0.3417  XYY=              6.7982
  XXY=              1.2677  XXZ=              9.9795  XZZ=              8.0172  YZZ=             -2.4142
  YYZ=              3.0137  XYZ=             -5.5853
 Hexadecapole moment (field-independent basis, Debye-Ang**3):
 XXXX=          -1360.7568 YYYY=           -761.4573 ZZZZ=            -61.1915 XXXY=           -183.5073
 XXXZ=             33.9986 YYYX=            -66.8278 YYYZ=             -6.1504 ZZZX=              1.8091
 ZZZY=             -1.1118 XXYY=           -357.4380 XXZZ=           -240.3194 YYZZ=           -131.8068
 XXYZ=            -18.9822 YYXZ=             10.5862 ZZXY=              4.8122
 N-N= 5.466546245520D+02 E-N=-2.427996507792D+03  KE= 5.665722400994D+02
   1 Symmetry operations used in ECPInt.
 ECPInt:  NShTT=    9453 NPrTT=   30144 LenC2=    8935 LenP2D=   21602.
 LDataN:  DoStor=T MaxTD1= 7 Len=  274
 Calling FoFJK, ICntrl=      2127 FMM=F ISym2X=0 I1Cent= 0 IOpClX= 0 NMat=1 NMatS=1 NMatT=0.
 ***** Axes restored to original set *****
 -------------------------------------------------------------------
 Center     Atomic                   Forces (Hartrees/Bohr)
 Number     Number              X              Y              Z
 -------------------------------------------------------------------
      1        6           0.005152020    0.043725705    0.001098096
      2        6          -0.039212522   -0.019252397   -0.000975480
      3        6          -0.040915609    0.022794384   -0.000010977
      4        6           0.003035912   -0.059523152   -0.001745575
      5        6          -0.010689568    0.010679899   -0.002573558
      6        6           0.038171430   -0.014378677    0.000420420
      7        1           0.002923366    0.011117432    0.000270800
      8        1           0.002289744   -0.011579840   -0.000184082
      9        1          -0.003584547    0.009884615    0.000243009
     10        8           0.009859979    0.069140920    0.001724849
     11        8          -0.001872944   -0.061910069   -0.001376939
     12        6          -0.013749490   -0.080526521   -0.000334858
     13        8          -0.008095644    0.086398689    0.004726227
     14        8           0.057670792    0.005757661    0.000573234
     15        1          -0.000982918   -0.012328649   -0.001855167
 -------------------------------------------------------------------
 Cartesian Forces:  Max     0.086398689 RMS     0.029189040

 GradGradGradGradGradGradGradGradGradGradGradGradGradGradGradGradGradGrad
 Berny optimization.
 FormGI is forming the generalized inverse of G from B-inverse, IUseBI=4.
 Internal  Forces:  Max     0.086457556 RMS     0.020791911
 Search for a local minimum.
 Step number   1 out of a maximum of   77
 All quantities printed in internal units (Hartrees-Bohrs-Radians)
 Mixed Optimization -- RFO/linear search
 Second derivative matrix not updated -- first step.
 ITU=  0
     Eigenvalues ---    0.00237   0.00237   0.00237   0.00237   0.00590
     Eigenvalues ---    0.00909   0.01052   0.01285   0.01295   0.01456
     Eigenvalues ---    0.01801   0.01830   0.16000   0.16000   0.16000
     Eigenvalues ---    0.16000   0.22336   0.23434   0.24599   0.25000
     Eigenvalues ---    0.25000   0.25000   0.25000   0.25000   0.27835
     Eigenvalues ---    0.28210   0.28519   0.28519   0.28519   0.37230
     Eigenvalues ---    0.37230   0.37230   0.40989   0.50846   0.53930
     Eigenvalues ---    0.55473   0.80209   0.80209   0.80209
 RFO step:  Lambda=-5.65654009D-02 EMin= 2.36824237D-03
 Linear search not attempted -- first point.
 Maximum step size (   0.300) exceeded in Quadratic search.
    -- Step size scaled by   0.824
 Iteration  1 RMS(Cart)=  0.08607893 RMS(Int)=  0.00293568
 Iteration  2 RMS(Cart)=  0.00350729 RMS(Int)=  0.00004711
 Iteration  3 RMS(Cart)=  0.00001224 RMS(Int)=  0.00004671
 Iteration  4 RMS(Cart)=  0.00000000 RMS(Int)=  0.00004671
 Variable       Old X    -DE/DX   Delta X   Delta X   Delta X     New X
                                 (Linear)    (Quad)   (Total)
    R1        2.91018  -0.03888   0.00000  -0.09433  -0.09430   2.81588
    R2        2.91018  -0.03508   0.00000  -0.08453  -0.08459   2.82559
    R3        2.37803  -0.06193   0.00000  -0.05945  -0.05945   2.31858
    R4        2.56096  -0.01825   0.00000  -0.02561  -0.02553   2.53543
    R5        2.02201   0.00807   0.00000   0.01551   0.01551   2.03752
    R6        2.91018  -0.03459   0.00000  -0.08350  -0.08345   2.82673
    R7        2.02201   0.00780   0.00000   0.01499   0.01499   2.03700
    R8        2.91018  -0.02112   0.00000  -0.05038  -0.05041   2.85977
    R9        2.37803  -0.06919   0.00000  -0.06642  -0.06642   2.31161
   R10        2.56096  -0.01256   0.00000  -0.01700  -0.01709   2.54387
   R11        2.91018  -0.02994   0.00000  -0.07222  -0.07222   2.83795
   R12        2.02201   0.00807   0.00000   0.01550   0.01550   2.03751
   R13        2.37803  -0.08646   0.00000  -0.08300  -0.08300   2.29503
   R14        2.70231  -0.05231   0.00000  -0.09244  -0.09244   2.60987
   R15        1.81414   0.00662   0.00000   0.00892   0.00892   1.82306
    A1        2.09440  -0.00954   0.00000  -0.02726  -0.02729   2.06711
    A2        2.09440   0.00679   0.00000   0.01906   0.01907   2.11346
    A3        2.09440   0.00275   0.00000   0.00821   0.00822   2.10261
    A4        2.09440   0.00474   0.00000   0.01135   0.01147   2.10586
    A5        2.09440  -0.01065   0.00000  -0.03720  -0.03726   2.05714
    A6        2.09440   0.00591   0.00000   0.02585   0.02579   2.12019
    A7        2.09440   0.01005   0.00000   0.02778   0.02793   2.12232
    A8        2.09440   0.00393   0.00000   0.02021   0.02014   2.11453
    A9        2.09440  -0.01399   0.00000  -0.04799  -0.04806   2.04633
   A10        2.09440  -0.01436   0.00000  -0.03906  -0.03904   2.05536
   A11        2.09440  -0.00431   0.00000  -0.01137  -0.01138   2.08301
   A12        2.09440   0.01867   0.00000   0.05043   0.05042   2.14481
   A13        2.09440   0.00087   0.00000   0.00278   0.00265   2.09705
   A14        2.09440   0.00680   0.00000   0.01808   0.01814   2.11254
   A15        2.09440  -0.00768   0.00000  -0.02086  -0.02080   2.07360
   A16        2.09440   0.00823   0.00000   0.02442   0.02427   2.11867
   A17        2.09440  -0.01094   0.00000  -0.03818  -0.03810   2.05629
   A18        2.09440   0.00271   0.00000   0.01376   0.01383   2.10822
   A19        2.09440   0.02878   0.00000   0.07737   0.07737   2.17176
   A20        2.09440  -0.03781   0.00000  -0.10166  -0.10166   1.99273
   A21        2.09440   0.00903   0.00000   0.02429   0.02428   2.11868
   A22        1.91063  -0.01453   0.00000  -0.05530  -0.05530   1.85533
    D1        0.00000  -0.00002   0.00000  -0.00014  -0.00013  -0.00013
    D2       -3.14159   0.00000   0.00000   0.00011   0.00011  -3.14148
    D3       -3.14159  -0.00002   0.00000  -0.00023  -0.00022   3.14138
    D4        0.00000   0.00000   0.00000   0.00002   0.00002   0.00002
    D5       -0.00000   0.00001   0.00000   0.00008   0.00008   0.00008
    D6       -3.14159  -0.00005   0.00000  -0.00060  -0.00060   3.14100
    D7        3.14159   0.00001   0.00000   0.00017   0.00017  -3.14143
    D8        0.00000  -0.00004   0.00000  -0.00052  -0.00051  -0.00051
    D9       -0.00000   0.00003   0.00000   0.00033   0.00033   0.00033
   D10       -3.14159   0.00004   0.00000   0.00045   0.00044  -3.14115
   D11       -3.14159   0.00001   0.00000   0.00008   0.00008  -3.14151
   D12        0.00000   0.00002   0.00000   0.00020   0.00020   0.00020
   D13       -0.00000  -0.00003   0.00000  -0.00047  -0.00046  -0.00046
   D14        3.14159   0.00005   0.00000   0.00072   0.00070  -3.14090
   D15        3.14159  -0.00005   0.00000  -0.00058  -0.00057   3.14102
   D16       -0.00000   0.00004   0.00000   0.00060   0.00059   0.00058
   D17        0.00000   0.00003   0.00000   0.00041   0.00041   0.00041
   D18       -3.14159   0.00006   0.00000   0.00080   0.00080  -3.14079
   D19       -3.14159  -0.00006   0.00000  -0.00078  -0.00080   3.14080
   D20        0.00000  -0.00003   0.00000  -0.00039  -0.00040  -0.00040
   D21       -0.00000  -0.00002   0.00000  -0.00022  -0.00023  -0.00023
   D22        3.14159   0.00004   0.00000   0.00047   0.00047  -3.14112
   D23       -3.14159  -0.00005   0.00000  -0.00061  -0.00062   3.14098
   D24       -0.00000   0.00001   0.00000   0.00008   0.00008   0.00008
   D25        0.00000   0.00015   0.00000   0.00234   0.00230   0.00231
   D26       -3.14159   0.00056   0.00000   0.00766   0.00769  -3.13391
   D27        3.14159   0.00019   0.00000   0.00273   0.00270  -3.13889
   D28       -0.00000   0.00059   0.00000   0.00805   0.00808   0.00808
   D29       -2.61799  -0.00615   0.00000  -0.07325  -0.07319  -2.69118
   D30        0.52360  -0.00575   0.00000  -0.06792  -0.06799   0.45561
         Item               Value     Threshold  Converged?
 Maximum Force            0.086458     0.000450     NO 
 RMS     Force            0.020792     0.000300     NO 
 Maximum Displacement     0.338180     0.001800     NO 
 RMS     Displacement     0.085879     0.001200     NO 
 Predicted change in Energy=-3.023848D-02
 GradGradGradGradGradGradGradGradGradGradGradGradGradGradGradGradGradGrad

                          Input orientation:                          
 ---------------------------------------------------------------------
 Center     Atomic      Atomic             Coordinates (Angstroms)
 Number     Number       Type             X           Y           Z
 ---------------------------------------------------------------------
      1          6           0       -0.019533    1.404690    0.021546
      2          6           0        1.271307    0.660306    0.018013
      3          6           0        1.287505   -0.680935   -0.012645
      4          6           0        0.023088   -1.479536   -0.044720
      5          6           0       -1.288149   -0.724027   -0.040954
      6          6           0       -1.293020    0.621767   -0.010013
      7          1           0        2.183932    1.233992    0.041025
      8          1           0        2.216589   -1.227501   -0.015026
      9          1           0       -2.221174    1.170441   -0.006594
     10          8           0        0.085903   -2.700883   -0.071375
     11          8           0       -0.043671    2.631069    0.049709
     12          6           0       -2.601368   -1.451973   -0.070857
     13          8           0       -2.716040   -2.660742   -0.097135
     14          8           0       -3.706942   -0.624266   -0.073044
     15          1           0       -4.428787   -1.135564    0.311928
 ---------------------------------------------------------------------
                    Distance matrix (angstroms):
                    1          2          3          4          5
     1  C    0.000000
     2  C    1.490097   0.000000
     3  C    2.461574   1.341689   0.000000
     4  C    2.885302   2.478086   1.495841   0.000000
     5  C    2.478856   2.910441   2.576169   1.513324   0.000000
     6  C    1.495237   2.564770   2.890700   2.479681   1.346158
     7  H    2.210153   1.078207   2.115044   3.469846   3.986967
     8  H    3.453985   2.111508   1.077933   2.208133   3.540812
     9  H    2.214247   3.529628   3.967173   3.472830   2.112043
    10  O    4.107978   3.565216   2.351061   1.223252   2.407676
    11  O    1.226940   2.369404   3.570054   4.112231   3.579610
    12  C    3.851615   4.412169   3.964999   2.624732   1.501781
    13  O    4.879853   5.190526   4.467118   2.983424   2.406843
    14  O    4.209821   5.142118   4.995133   3.826932   2.421062
    15  H    5.096933   5.983528   5.743520   4.479365   3.187083
                    6          7          8          9         10
     6  C    0.000000
     7  H    3.530811   0.000000
     8  H    3.967011   2.462348   0.000000
     9  H    1.078205   4.405822   5.044199   0.000000
    10  O    3.597943   4.460673   2.591111   4.507100   0.000000
    11  O    2.366798   2.629470   4.472307   2.622618   5.334900
    12  C    2.452728   5.488718   4.823507   2.650610   2.963309
    13  O    3.578748   6.260812   5.137290   3.864072   2.802348
    14  O    2.717276   6.178069   5.954450   2.330857   4.324119
    15  H    3.609001   7.029669   6.654050   3.208219   4.793700
                   11         12         13         14         15
    11  O    0.000000
    12  C    4.819501   0.000000
    13  O    5.930125   1.214480   0.000000
    14  O    4.902227   1.381085   2.264884   0.000000
    15  H    5.786668   1.893699   2.329593   0.964723   0.000000
 Stoichiometry    C7H4O4
 Framework group  C1[X(C7H4O4)]
 Deg. of freedom    39
 Full point group                 C1      NOp   1
 Largest Abelian subgroup         C1      NOp   1
 Largest concise Abelian subgroup C1      NOp   1
                         Standard orientation:                         
 ---------------------------------------------------------------------
 Center     Atomic      Atomic             Coordinates (Angstroms)
 Number     Number       Type             X           Y           Z
 ---------------------------------------------------------------------
      1          6           0       -1.904363   -0.800362   -0.000230
      2          6           0       -2.354787    0.620008    0.007347
      3          6           0       -1.461418    1.621019    0.007904
      4          6           0        0.011008    1.357489    0.000593
      5          6           0        0.468975   -0.084856   -0.006911
      6          6           0       -0.435828   -1.081588   -0.007347
      7          1           0       -3.415708    0.812229    0.012548
      8          1           0       -1.778333    2.651295    0.013771
      9          1           0       -0.121041   -2.112806   -0.012230
     10          8           0        0.789023    2.301436    0.002131
     11          8           0       -2.714343   -1.721943   -0.000564
     12          6           0        1.929716   -0.433482   -0.013464
     13          8           0        2.830220    0.381410   -0.010983
     14          8           0        2.187322   -1.790234   -0.029600
     15          1           0        3.057487   -1.905439    0.370688
 ---------------------------------------------------------------------
 Rotational constants (GHZ):           1.7827960           0.9308936           0.6117934
 Standard basis: def2TZVP (5D, 7F)
 There are   420 symmetry adapted cartesian basis functions of A   symmetry.
 There are   365 symmetry adapted basis functions of A   symmetry.
   365 basis functions,   593 primitive gaussians,   420 cartesian basis functions
    39 alpha electrons       39 beta electrons
       nuclear repulsion energy       558.8098033568 Hartrees.
 NAtoms=   15 NActive=   15 NUniq=   15 SFac= 1.00D+00 NAtFMM=   60 NAOKFM=F Big=F
 Integral buffers will be    131072 words long.
 Raffenetti 2 integral format.
 Two-electron integral symmetry is turned on.
 One-electron integrals computed using PRISM.
   1 Symmetry operations used in ECPInt.
 ECPInt:  NShTT=    9453 NPrTT=   30144 LenC2=    8971 LenP2D=   21839.
 LDataN:  DoStor=T MaxTD1= 6 Len=  172
 NBasis=   365 RedAO= T EigKep=  1.54D-05  NBF=   365
 NBsUse=   365 1.00D-06 EigRej= -1.00D+00 NBFU=   365
 Initial guess from the checkpoint file:  "C6H4O2.chk"
 B after Tr=    -0.000000    0.000000    0.000000
         Rot=    0.999953   -0.000109    0.000068    0.009696 Ang=  -1.11 deg.
 ExpMin= 9.52D-02 ExpMax= 2.70D+04 ExpMxC= 9.22D+02 IAcc=2 IRadAn=         4 AccDes= 0.00D+00
 Harris functional with IExCor=  402 and IRadAn=       4 diagonalized for initial guess.
 HarFok:  IExCor=  402 AccDes= 0.00D+00 IRadAn=         4 IDoV= 1 UseB2=F ITyADJ=14
 ICtDFT=  3500011 ScaDFX=  1.000000  1.000000  1.000000  1.000000
 FoFCou: FMM=F IPFlag=           0 FMFlag=      100000 FMFlg1=           0
         NFxFlg=           0 DoJE=T BraDBF=F KetDBF=T FulRan=T
         wScrn=  0.000000 ICntrl=       500 IOpCl=  0 I1Cent=   200000004 NGrid=           0
         NMat0=    1 NMatS0=      1 NMatT0=    0 NMatD0=    1 NMtDS0=    0 NMtDT0=    0
 Petite list used in FoFCou.
 Requested convergence on RMS density matrix=1.00D-08 within 128 cycles.
 Requested convergence on MAX density matrix=1.00D-06.
 Requested convergence on             energy=1.00D-06.
 No special actions if energy rises.
 Integral accuracy reduced to 1.0D-05 until final iterations.
 Initial convergence to 1.0D-05 achieved.  Increase integral accuracy.
 SCF Done:  E(RB3LYP) =  -570.242431564     A.U. after   13 cycles
            NFock= 13  Conv=0.96D-08     -V/T= 2.0049
   1 Symmetry operations used in ECPInt.
 ECPInt:  NShTT=    9453 NPrTT=   30144 LenC2=    8971 LenP2D=   21839.
 LDataN:  DoStor=T MaxTD1= 7 Len=  274
 Calling FoFJK, ICntrl=      2127 FMM=F ISym2X=0 I1Cent= 0 IOpClX= 0 NMat=1 NMatS=1 NMatT=0.
 ***** Axes restored to original set *****
 -------------------------------------------------------------------
 Center     Atomic                   Forces (Hartrees/Bohr)
 Number     Number              X              Y              Z
 -------------------------------------------------------------------
      1        6           0.002338020    0.013665761    0.000231788
      2        6          -0.010734234   -0.008170571   -0.000301330
      3        6          -0.012470653    0.011514536    0.000172443
      4        6           0.002640112   -0.018587097   -0.000733118
      5        6          -0.004782843    0.005882130   -0.002465636
      6        6           0.014571191   -0.004840787    0.000233180
      7        1           0.000591931    0.004457143    0.000114438
      8        1           0.000241360   -0.005194703   -0.000092308
      9        1           0.000171544    0.003488138    0.000241469
     10        8          -0.000812806    0.018736226    0.000418065
     11        8          -0.000785594   -0.014949073   -0.000334465
     12        6          -0.007643496   -0.027799511   -0.003347576
     13        8           0.000841962    0.025690324    0.004312649
     14        8           0.020292747    0.000527813    0.007192384
     15        1          -0.004459239   -0.004420331   -0.005641983
 -------------------------------------------------------------------
 Cartesian Forces:  Max     0.027799511 RMS     0.009436633

 GradGradGradGradGradGradGradGradGradGradGradGradGradGradGradGradGradGrad
 Berny optimization.
 Using GEDIIS/GDIIS optimizer.
 FormGI is forming the generalized inverse of G from B-inverse, IUseBI=4.
 Internal  Forces:  Max     0.025742274 RMS     0.006020178
 Search for a local minimum.
 Step number   2 out of a maximum of   77
 All quantities printed in internal units (Hartrees-Bohrs-Radians)
 Mixed Optimization -- RFO/linear search
 Update second derivatives using D2CorX and points    1    2
 DE= -3.07D-02 DEPred=-3.02D-02 R= 1.02D+00
 TightC=F SS=  1.41D+00  RLast= 3.16D-01 DXNew= 5.0454D-01 9.4877D-01
 Trust test= 1.02D+00 RLast= 3.16D-01 DXMaxT set to 5.05D-01
 ITU=  1  0
 Use linear search instead of GDIIS.
     Eigenvalues ---    0.00237   0.00237   0.00237   0.00237   0.00574
     Eigenvalues ---    0.00904   0.01091   0.01276   0.01312   0.01496
     Eigenvalues ---    0.01826   0.01865   0.15797   0.16000   0.16000
     Eigenvalues ---    0.16273   0.22151   0.23101   0.24332   0.24662
     Eigenvalues ---    0.25000   0.25000   0.25000   0.26016   0.27850
     Eigenvalues ---    0.28176   0.28358   0.28519   0.30967   0.37188
     Eigenvalues ---    0.37230   0.37265   0.40944   0.50636   0.54046
     Eigenvalues ---    0.55426   0.76564   0.80209   0.80417
 RFO step:  Lambda=-4.87042035D-03 EMin= 2.36815128D-03
 Quartic linear search produced a step of  0.33665.
 Iteration  1 RMS(Cart)=  0.04932513 RMS(Int)=  0.02409956
 Iteration  2 RMS(Cart)=  0.02503564 RMS(Int)=  0.00184386
 Iteration  3 RMS(Cart)=  0.00182172 RMS(Int)=  0.00002304
 Iteration  4 RMS(Cart)=  0.00000521 RMS(Int)=  0.00002279
 Iteration  5 RMS(Cart)=  0.00000000 RMS(Int)=  0.00002279
 Variable       Old X    -DE/DX   Delta X   Delta X   Delta X     New X
                                 (Linear)    (Quad)   (Total)
    R1        2.81588  -0.01120  -0.03175  -0.00576  -0.03750   2.77838
    R2        2.82559  -0.00880  -0.02848   0.00106  -0.02744   2.79814
    R3        2.31858  -0.01493  -0.02001  -0.00119  -0.02121   2.29737
    R4        2.53543  -0.00528  -0.00860  -0.00247  -0.01103   2.52439
    R5        2.03752   0.00288   0.00522   0.00310   0.00832   2.04584
    R6        2.82673  -0.00816  -0.02809   0.00306  -0.02500   2.80173
    R7        2.03700   0.00284   0.00505   0.00322   0.00827   2.04526
    R8        2.85977  -0.00797  -0.01697  -0.01161  -0.02859   2.83118
    R9        2.31161  -0.01876  -0.02236  -0.00475  -0.02711   2.28450
   R10        2.54387  -0.00110  -0.00575   0.00475  -0.00104   2.54283
   R11        2.83795  -0.00504  -0.02431   0.01210  -0.01221   2.82574
   R12        2.03751   0.00163   0.00522  -0.00129   0.00393   2.04144
   R13        2.29503  -0.02574  -0.02794  -0.00973  -0.03767   2.25737
   R14        2.60987  -0.01501  -0.03112  -0.00713  -0.03825   2.57163
   R15        1.82306   0.00343   0.00300   0.00442   0.00743   1.83049
    A1        2.06711  -0.00460  -0.00919  -0.01127  -0.02048   2.04662
    A2        2.11346   0.00355   0.00642   0.00941   0.01583   2.12930
    A3        2.10261   0.00105   0.00277   0.00186   0.00463   2.10724
    A4        2.10586   0.00101   0.00386  -0.00246   0.00145   2.10731
    A5        2.05714  -0.00403  -0.01254  -0.00833  -0.02090   2.03624
    A6        2.12019   0.00302   0.00868   0.01079   0.01945   2.13964
    A7        2.12232   0.00472   0.00940   0.01100   0.02047   2.14279
    A8        2.11453   0.00208   0.00678   0.00988   0.01663   2.13116
    A9        2.04633  -0.00680  -0.01618  -0.02088  -0.03709   2.00924
   A10        2.05536  -0.00454  -0.01314  -0.00455  -0.01767   2.03769
   A11        2.08301   0.00209  -0.00383   0.01705   0.01321   2.09622
   A12        2.14481   0.00244   0.01697  -0.01250   0.00446   2.14927
   A13        2.09705  -0.00149   0.00089  -0.00885  -0.00801   2.08904
   A14        2.11254  -0.00366   0.00611  -0.02841  -0.02228   2.09026
   A15        2.07360   0.00514  -0.00700   0.03727   0.03029   2.10389
   A16        2.11867   0.00489   0.00817   0.01613   0.02424   2.14290
   A17        2.05629  -0.00560  -0.01283  -0.01796  -0.03076   2.02554
   A18        2.10822   0.00071   0.00466   0.00183   0.00652   2.11474
   A19        2.17176   0.00733   0.02605  -0.00100   0.02504   2.19680
   A20        1.99273  -0.01115  -0.03422  -0.00654  -0.04078   1.95196
   A21        2.11868   0.00381   0.00817   0.00759   0.01575   2.13443
   A22        1.85533  -0.00006  -0.01862   0.03258   0.01396   1.86929
    D1       -0.00013   0.00001  -0.00004   0.00369   0.00364   0.00351
    D2       -3.14148   0.00003   0.00004   0.00380   0.00382  -3.13766
    D3        3.14138  -0.00004  -0.00007  -0.00287  -0.00297   3.13841
    D4        0.00002  -0.00002   0.00001  -0.00277  -0.00279  -0.00277
    D5        0.00008  -0.00003   0.00003  -0.00455  -0.00452  -0.00444
    D6        3.14100  -0.00008  -0.00020  -0.00582  -0.00599   3.13501
    D7       -3.14143   0.00002   0.00006   0.00197   0.00199  -3.13943
    D8       -0.00051  -0.00003  -0.00017   0.00070   0.00052   0.00002
    D9        0.00033   0.00002   0.00011   0.00009   0.00018   0.00050
   D10       -3.14115   0.00001   0.00015  -0.00030  -0.00016  -3.14131
   D11       -3.14151   0.00000   0.00003  -0.00003  -0.00002  -3.14153
   D12        0.00020  -0.00000   0.00007  -0.00041  -0.00036  -0.00016
   D13       -0.00046  -0.00003  -0.00016  -0.00309  -0.00325  -0.00371
   D14       -3.14090  -0.00001   0.00023  -0.00414  -0.00390   3.13839
   D15        3.14102  -0.00003  -0.00019  -0.00272  -0.00293   3.13809
   D16        0.00058  -0.00001   0.00020  -0.00376  -0.00358  -0.00299
   D17        0.00041   0.00001   0.00014   0.00222   0.00236   0.00277
   D18       -3.14079  -0.00001   0.00027  -0.00011   0.00020  -3.14059
   D19        3.14080  -0.00001  -0.00027   0.00333   0.00304  -3.13935
   D20       -0.00040  -0.00003  -0.00013   0.00100   0.00088   0.00048
   D21       -0.00023   0.00002  -0.00008   0.00155   0.00147   0.00124
   D22       -3.14112   0.00007   0.00016   0.00287   0.00302  -3.13810
   D23        3.14098   0.00003  -0.00021   0.00382   0.00363  -3.13858
   D24        0.00008   0.00009   0.00003   0.00513   0.00519   0.00527
   D25        0.00231   0.00033   0.00078   0.04351   0.04429   0.04659
   D26       -3.13391   0.00044   0.00259   0.03360   0.03619  -3.09771
   D27       -3.13889   0.00031   0.00091   0.04121   0.04212  -3.09678
   D28        0.00808   0.00043   0.00272   0.03131   0.03402   0.04210
   D29       -2.69118  -0.00680  -0.02464  -0.30700  -0.33164  -3.02282
   D30        0.45561  -0.00670  -0.02289  -0.31654  -0.33943   0.11618
         Item               Value     Threshold  Converged?
 Maximum Force            0.025742     0.000450     NO 
 RMS     Force            0.006020     0.000300     NO 
 Maximum Displacement     0.442722     0.001800     NO 
 RMS     Displacement     0.071123     0.001200     NO 
 Predicted change in Energy=-6.554267D-03
 GradGradGradGradGradGradGradGradGradGradGradGradGradGradGradGradGradGrad

                          Input orientation:                          
 ---------------------------------------------------------------------
 Center     Atomic      Atomic             Coordinates (Angstroms)
 Number     Number       Type             X           Y           Z
 ---------------------------------------------------------------------
      1          6           0       -0.013154    1.410003    0.027721
      2          6           0        1.251763    0.661190   -0.002545
      3          6           0        1.254083   -0.674286   -0.034094
      4          6           0        0.008921   -1.479053   -0.041329
      5          6           0       -1.283492   -0.722066   -0.006281
      6          6           0       -1.267435    0.623052    0.026248
      7          1           0        2.162836    1.245967    0.002597
      8          1           0        2.171820   -1.247562   -0.056505
      9          1           0       -2.184943    1.192572    0.055138
     10          8           0        0.067258   -2.686117   -0.073726
     11          8           0       -0.041959    2.624951    0.059972
     12          6           0       -2.580217   -1.466692   -0.010009
     13          8           0       -2.705222   -2.654574    0.005877
     14          8           0       -3.648131   -0.623467   -0.030854
     15          1           0       -4.442488   -1.167078    0.077650
 ---------------------------------------------------------------------
                    Distance matrix (angstroms):
                    1          2          3          4          5
     1  C    0.000000
     2  C    1.470255   0.000000
     3  C    2.440076   1.335851   0.000000
     4  C    2.889965   2.475238   1.482609   0.000000
     5  C    2.482062   2.888067   2.538177   1.498196   0.000000
     6  C    1.480714   2.519652   2.836332   2.460183   1.345607
     7  H    2.182309   1.082610   2.124748   3.473761   3.968679
     8  H    3.441490   2.119611   1.082307   2.175304   3.495404
     9  H    2.182818   3.478023   3.914080   3.458313   2.117127
    10  O    4.098165   3.551421   2.336148   1.208907   2.384654
    11  O    1.215718   2.352442   3.545919   4.105570   3.570478
    12  C    3.855724   4.383151   3.915398   2.589357   1.495319
    13  O    4.875294   5.162567   4.427102   2.958150   2.399177
    14  O    4.165512   5.065581   4.902478   3.755818   2.366821
    15  H    5.124728   5.981095   5.718938   4.463914   3.191291
                    6          7          8          9         10
     6  C    0.000000
     7  H    3.486452   0.000000
     8  H    3.915931   2.494246   0.000000
     9  H    1.080282   4.348425   4.994807   0.000000
    10  O    3.569594   4.456295   2.549297   4.487009   0.000000
    11  O    2.347452   2.601156   4.462145   2.577618   5.313874
    12  C    2.468145   5.463994   4.757314   2.689270   2.915508
    13  O    3.579173   6.237966   5.076328   3.882480   2.773802
    14  O    2.687896   6.104363   5.853373   2.333734   4.249763
    15  H    3.645294   7.032690   6.616158   3.265726   4.761114
                   11         12         13         14         15
    11  O    0.000000
    12  C    4.815516   0.000000
    13  O    5.913483   1.194547   0.000000
    14  O    4.854374   1.360846   2.239603   0.000000
    15  H    5.808997   1.888255   2.288207   0.968653   0.000000
 Stoichiometry    C7H4O4
 Framework group  C1[X(C7H4O4)]
 Deg. of freedom    39
 Full point group                 C1      NOp   1
 Largest Abelian subgroup         C1      NOp   1
 Largest concise Abelian subgroup C1      NOp   1
                         Standard orientation:                         
 ---------------------------------------------------------------------
 Center     Atomic      Atomic             Coordinates (Angstroms)
 Number     Number       Type             X           Y           Z
 ---------------------------------------------------------------------
      1          6           0       -1.923204   -0.765148    0.003526
      2          6           0       -2.324435    0.649295   -0.000478
      3          6           0       -1.406199    1.619512   -0.005064
      4          6           0        0.050867    1.345499   -0.007044
      5          6           0        0.466368   -0.093903    0.001334
      6          6           0       -0.471838   -1.058473    0.006867
      7          1           0       -3.387757    0.852737    0.000901
      8          1           0       -1.676649    2.667481   -0.007816
      9          1           0       -0.199016   -2.103696    0.016175
     10          8           0        0.840062    2.261235   -0.014574
     11          8           0       -2.739239   -1.666258    0.011011
     12          6           0        1.919379   -0.447088    0.001192
     13          8           0        2.827934    0.327489    0.039930
     14          8           0        2.113138   -1.793240   -0.046070
     15          1           0        3.062633   -1.948496    0.066369
 ---------------------------------------------------------------------
 Rotational constants (GHZ):           1.8296998           0.9399399           0.6210583
 Standard basis: def2TZVP (5D, 7F)
 There are   420 symmetry adapted cartesian basis functions of A   symmetry.
 There are   365 symmetry adapted basis functions of A   symmetry.
   365 basis functions,   593 primitive gaussians,   420 cartesian basis functions
    39 alpha electrons       39 beta electrons
       nuclear repulsion energy       563.4857555149 Hartrees.
 NAtoms=   15 NActive=   15 NUniq=   15 SFac= 1.00D+00 NAtFMM=   60 NAOKFM=F Big=F
 Integral buffers will be    131072 words long.
 Raffenetti 2 integral format.
 Two-electron integral symmetry is turned on.
 One-electron integrals computed using PRISM.
   1 Symmetry operations used in ECPInt.
 ECPInt:  NShTT=    9453 NPrTT=   30144 LenC2=    8979 LenP2D=   21899.
 LDataN:  DoStor=T MaxTD1= 6 Len=  172
 NBasis=   365 RedAO= T EigKep=  1.45D-05  NBF=   365
 NBsUse=   365 1.00D-06 EigRej= -1.00D+00 NBFU=   365
 Initial guess from the checkpoint file:  "C6H4O2.chk"
 B after Tr=     0.000000   -0.000000   -0.000000
         Rot=    0.999955   -0.000055   -0.000073    0.009535 Ang=  -1.09 deg.
 ExpMin= 9.52D-02 ExpMax= 2.70D+04 ExpMxC= 9.22D+02 IAcc=2 IRadAn=         4 AccDes= 0.00D+00
 Harris functional with IExCor=  402 and IRadAn=       4 diagonalized for initial guess.
 HarFok:  IExCor=  402 AccDes= 0.00D+00 IRadAn=         4 IDoV= 1 UseB2=F ITyADJ=14
 ICtDFT=  3500011 ScaDFX=  1.000000  1.000000  1.000000  1.000000
 FoFCou: FMM=F IPFlag=           0 FMFlag=      100000 FMFlg1=           0
         NFxFlg=           0 DoJE=T BraDBF=F KetDBF=T FulRan=T
         wScrn=  0.000000 ICntrl=       500 IOpCl=  0 I1Cent=   200000004 NGrid=           0
         NMat0=    1 NMatS0=      1 NMatT0=    0 NMatD0=    1 NMtDS0=    0 NMtDT0=    0
 Petite list used in FoFCou.
 Requested convergence on RMS density matrix=1.00D-08 within 128 cycles.
 Requested convergence on MAX density matrix=1.00D-06.
 Requested convergence on             energy=1.00D-06.
 No special actions if energy rises.
 Integral accuracy reduced to 1.0D-05 until final iterations.
 Initial convergence to 1.0D-05 achieved.  Increase integral accuracy.
 SCF Done:  E(RB3LYP) =  -570.248224863     A.U. after   13 cycles
            NFock= 13  Conv=0.99D-08     -V/T= 2.0043
   1 Symmetry operations used in ECPInt.
 ECPInt:  NShTT=    9453 NPrTT=   30144 LenC2=    8979 LenP2D=   21899.
 LDataN:  DoStor=T MaxTD1= 7 Len=  274
 Calling FoFJK, ICntrl=      2127 FMM=F ISym2X=0 I1Cent= 0 IOpClX= 0 NMat=1 NMatS=1 NMatT=0.
 ***** Axes restored to original set *****
 -------------------------------------------------------------------
 Center     Atomic                   Forces (Hartrees/Bohr)
 Number     Number              X              Y              Z
 -------------------------------------------------------------------
      1        6           0.000211568   -0.000920010    0.000918636
      2        6           0.002209344   -0.002336793   -0.000348374
      3        6           0.001491306    0.002730823    0.000098344
      4        6          -0.001046923    0.001912115    0.000172051
      5        6          -0.001300933    0.005691963   -0.001193935
      6        6          -0.000744308   -0.004293612   -0.000087511
      7        1           0.000043262    0.000427728   -0.000015763
      8        1          -0.000042605   -0.000992657   -0.000013369
      9        1          -0.000146949    0.001030058   -0.000135747
     10        8           0.002218885   -0.004368153   -0.000366910
     11        8          -0.000719228    0.003271071   -0.000206203
     12        6          -0.003240742    0.004291791   -0.000393908
     13        8          -0.001344369   -0.007139871    0.001267746
     14        8           0.002253477    0.002089494    0.002474374
     15        1           0.000158215   -0.001393948   -0.002169432
 -------------------------------------------------------------------
 Cartesian Forces:  Max     0.007139871 RMS     0.002233914

 GradGradGradGradGradGradGradGradGradGradGradGradGradGradGradGradGradGrad
 Berny optimization.
 Using GEDIIS/GDIIS optimizer.
 FormGI is forming the generalized inverse of G from B-inverse, IUseBI=4.
 Internal  Forces:  Max     0.007258123 RMS     0.001579957
 Search for a local minimum.
 Step number   3 out of a maximum of   77
 All quantities printed in internal units (Hartrees-Bohrs-Radians)
 Mixed Optimization -- RFO/linear search
 Update second derivatives using D2CorX and points    2    3
 DE= -5.79D-03 DEPred=-6.55D-03 R= 8.84D-01
 TightC=F SS=  1.41D+00  RLast= 5.00D-01 DXNew= 8.4853D-01 1.4989D+00
 Trust test= 8.84D-01 RLast= 5.00D-01 DXMaxT set to 8.49D-01
 ITU=  1  1  0
 Use linear search instead of GDIIS.
     Eigenvalues ---    0.00236   0.00237   0.00237   0.00238   0.00570
     Eigenvalues ---    0.00920   0.01117   0.01335   0.01388   0.01523
     Eigenvalues ---    0.01843   0.01892   0.15637   0.16000   0.16012
     Eigenvalues ---    0.16312   0.21812   0.23004   0.24307   0.24676
     Eigenvalues ---    0.25000   0.25000   0.25065   0.26559   0.27872
     Eigenvalues ---    0.28174   0.28466   0.28718   0.32671   0.37158
     Eigenvalues ---    0.37231   0.37258   0.40839   0.50601   0.53906
     Eigenvalues ---    0.55408   0.80204   0.80346   0.83619
 RFO step:  Lambda=-9.85912505D-04 EMin= 2.36144850D-03
 Quartic linear search produced a step of  0.08122.
 Iteration  1 RMS(Cart)=  0.04988480 RMS(Int)=  0.00201241
 Iteration  2 RMS(Cart)=  0.00251941 RMS(Int)=  0.00023939
 Iteration  3 RMS(Cart)=  0.00000914 RMS(Int)=  0.00023931
 Iteration  4 RMS(Cart)=  0.00000000 RMS(Int)=  0.00023931
 Variable       Old X    -DE/DX   Delta X   Delta X   Delta X     New X
                                 (Linear)    (Quad)   (Total)
    R1        2.77838   0.00208  -0.00305   0.00936   0.00636   2.78475
    R2        2.79814   0.00183  -0.00223   0.00767   0.00548   2.80363
    R3        2.29737   0.00328  -0.00172   0.00508   0.00336   2.30073
    R4        2.52439  -0.00091  -0.00090  -0.00128  -0.00217   2.52222
    R5        2.04584   0.00027   0.00068   0.00039   0.00107   2.04690
    R6        2.80173   0.00203  -0.00203   0.00856   0.00648   2.80821
    R7        2.04526   0.00049   0.00067   0.00103   0.00170   2.04696
    R8        2.83118   0.00346  -0.00232   0.01429   0.01192   2.84310
    R9        2.28450   0.00448  -0.00220   0.00698   0.00477   2.28928
   R10        2.54283  -0.00190  -0.00008  -0.00399  -0.00407   2.53876
   R11        2.82574   0.00295  -0.00099   0.01115   0.01016   2.83591
   R12        2.04144   0.00066   0.00032   0.00182   0.00213   2.04357
   R13        2.25737   0.00726  -0.00306   0.01118   0.00812   2.26549
   R14        2.57163  -0.00147  -0.00311  -0.00233  -0.00543   2.56619
   R15        1.83049   0.00041   0.00060   0.00041   0.00102   1.83150
    A1        2.04662   0.00017  -0.00166   0.00181  -0.00055   2.04607
    A2        2.12930   0.00065   0.00129   0.00215   0.00240   2.13169
    A3        2.10724  -0.00082   0.00038  -0.00349  -0.00413   2.10311
    A4        2.10731  -0.00066   0.00012  -0.00295  -0.00267   2.10464
    A5        2.03624  -0.00002  -0.00170   0.00027  -0.00151   2.03473
    A6        2.13964   0.00067   0.00158   0.00268   0.00418   2.14382
    A7        2.14279   0.00043   0.00166   0.00132   0.00305   2.14584
    A8        2.13116   0.00067   0.00135   0.00370   0.00502   2.13617
    A9        2.00924  -0.00110  -0.00301  -0.00503  -0.00807   2.00116
   A10        2.03769   0.00009  -0.00144   0.00120  -0.00065   2.03704
   A11        2.09622  -0.00234   0.00107  -0.01098  -0.01034   2.08588
   A12        2.14927   0.00225   0.00036   0.00980   0.00970   2.15897
   A13        2.08904  -0.00101  -0.00065  -0.00409  -0.00468   2.08436
   A14        2.09026   0.00156  -0.00181   0.00849   0.00663   2.09688
   A15        2.10389  -0.00055   0.00246  -0.00438  -0.00197   2.10192
   A16        2.14290   0.00098   0.00197   0.00288   0.00501   2.14792
   A17        2.02554  -0.00130  -0.00250  -0.00582  -0.00840   2.01714
   A18        2.11474   0.00032   0.00053   0.00293   0.00337   2.11811
   A19        2.19680   0.00188   0.00203   0.00717   0.00913   2.20592
   A20        1.95196  -0.00246  -0.00331  -0.00882  -0.01221   1.93975
   A21        2.13443   0.00058   0.00128   0.00170   0.00290   2.13733
   A22        1.86929  -0.00206   0.00113  -0.01516  -0.01403   1.85527
    D1        0.00351  -0.00014   0.00030  -0.03200  -0.03171  -0.02820
    D2       -3.13766  -0.00014   0.00031  -0.03119  -0.03086   3.11466
    D3        3.13841   0.00016  -0.00024   0.04770   0.04759  -3.09719
    D4       -0.00277   0.00016  -0.00023   0.04851   0.04843   0.04566
    D5       -0.00444   0.00017  -0.00037   0.03320   0.03280   0.02836
    D6        3.13501   0.00016  -0.00049   0.02928   0.02881  -3.11937
    D7       -3.13943  -0.00013   0.00016  -0.04546  -0.04515   3.09861
    D8        0.00002  -0.00015   0.00004  -0.04938  -0.04914  -0.04912
    D9        0.00050   0.00004   0.00001   0.00487   0.00498   0.00549
   D10       -3.14131   0.00001  -0.00001   0.00058   0.00067  -3.14064
   D11       -3.14153   0.00004  -0.00000   0.00401   0.00408  -3.13745
   D12       -0.00016   0.00002  -0.00003  -0.00028  -0.00023  -0.00040
   D13       -0.00371   0.00004  -0.00026   0.02205   0.02173   0.01801
   D14        3.13839  -0.00007  -0.00032  -0.03152  -0.03152   3.10687
   D15        3.13809   0.00006  -0.00024   0.02606   0.02573  -3.11936
   D16       -0.00299  -0.00005  -0.00029  -0.02751  -0.02751  -0.03050
   D17        0.00277  -0.00000   0.00019  -0.02085  -0.02068  -0.01791
   D18       -3.14059   0.00010   0.00002  -0.01148  -0.01149   3.13111
   D19       -3.13935   0.00011   0.00025   0.03449   0.03501  -3.10434
   D20        0.00048   0.00021   0.00007   0.04386   0.04420   0.04469
   D21        0.00124  -0.00010   0.00012  -0.00657  -0.00636  -0.00512
   D22       -3.13810  -0.00008   0.00025  -0.00245  -0.00213  -3.14023
   D23       -3.13858  -0.00022   0.00029  -0.01603  -0.01559   3.12902
   D24        0.00527  -0.00019   0.00042  -0.01191  -0.01136  -0.00609
   D25        0.04659   0.00010   0.00360   0.04122   0.04479   0.09138
   D26       -3.09771   0.00024   0.00294   0.06496   0.06790  -3.02981
   D27       -3.09678   0.00021   0.00342   0.05067   0.05408  -3.04270
   D28        0.04210   0.00035   0.00276   0.07441   0.07719   0.11930
   D29       -3.02282  -0.00207  -0.02694  -0.12291  -0.14981   3.11056
   D30        0.11618  -0.00193  -0.02757  -0.10014  -0.12774  -0.01157
         Item               Value     Threshold  Converged?
 Maximum Force            0.007258     0.000450     NO 
 RMS     Force            0.001580     0.000300     NO 
 Maximum Displacement     0.283853     0.001800     NO 
 RMS     Displacement     0.050034     0.001200     NO 
 Predicted change in Energy=-5.994205D-04
 GradGradGradGradGradGradGradGradGradGradGradGradGradGradGradGradGradGrad

                          Input orientation:                          
 ---------------------------------------------------------------------
 Center     Atomic      Atomic             Coordinates (Angstroms)
 Number     Number       Type             X           Y           Z
 ---------------------------------------------------------------------
      1          6           0       -0.012838    1.408904    0.065582
      2          6           0        1.255810    0.663088   -0.010952
      3          6           0        1.258123   -0.671094   -0.048074
      4          6           0        0.013410   -1.482489   -0.022653
      5          6           0       -1.286224   -0.725988    0.024168
      6          6           0       -1.267306    0.616810    0.061577
      7          1           0        2.164121    1.252780   -0.033345
      8          1           0        2.172924   -1.248503   -0.103492
      9          1           0       -2.182529    1.191756    0.096997
     10          8           0        0.086294   -2.689525   -0.095603
     11          8           0       -0.050371    2.625774    0.055176
     12          6           0       -2.590282   -1.468494    0.038555
     13          8           0       -2.731220   -2.657215    0.104160
     14          8           0       -3.641335   -0.614257   -0.059680
     15          1           0       -4.438936   -1.164708   -0.072558
 ---------------------------------------------------------------------
                    Distance matrix (angstroms):
                    1          2          3          4          5
     1  C    0.000000
     2  C    1.473624   0.000000
     3  C    2.440215   1.334701   0.000000
     4  C    2.892857   2.479354   1.486040   0.000000
     5  C    2.486159   2.897016   2.545964   1.504504   0.000000
     6  C    1.483617   2.524583   2.836990   2.460566   1.343452
     7  H    2.184791   1.083174   2.126580   3.479564   3.977902
     8  H    3.444990   2.122226   1.083205   2.173657   3.500718
     9  H    2.180756   3.480419   3.915270   3.462376   2.118115
    10  O    4.102795   3.551753   2.334417   1.211433   2.398672
    11  O    1.217493   2.358520   3.548543   4.109495   3.572478
    12  C    3.863077   4.397558   3.931103   2.604449   1.500697
    13  O    4.891258   5.189805   4.459003   2.988153   2.413307
    14  O    4.156303   5.061227   4.899801   3.756642   2.359251
    15  H    5.121807   5.981201   5.718455   4.463951   3.184561
                    6          7          8          9         10
     6  C    0.000000
     7  H    3.491155   0.000000
     8  H    3.916865   2.502282   0.000000
     9  H    1.081411   4.349032   4.996502   0.000000
    10  O    3.576142   4.456793   2.535869   4.499888   0.000000
    11  O    2.348810   2.607091   4.469702   2.569875   5.319193
    12  C    2.469674   5.478581   4.770399   2.691953   2.944991
    13  O    3.586655   6.266684   5.106684   3.887890   2.824772
    14  O    2.676984   6.098347   5.848914   2.326875   4.266526
    15  H    3.640197   7.031795   6.612464   3.266963   4.775281
                   11         12         13         14         15
    11  O    0.000000
    12  C    4.818138   0.000000
    13  O    5.924468   1.198843   0.000000
    14  O    4.837976   1.357970   2.242505   0.000000
    15  H    5.800308   1.876740   2.274884   0.969190   0.000000
 Stoichiometry    C7H4O4
 Framework group  C1[X(C7H4O4)]
 Deg. of freedom    39
 Full point group                 C1      NOp   1
 Largest Abelian subgroup         C1      NOp   1
 Largest concise Abelian subgroup C1      NOp   1
                         Standard orientation:                         
 ---------------------------------------------------------------------
 Center     Atomic      Atomic             Coordinates (Angstroms)
 Number     Number       Type             X           Y           Z
 ---------------------------------------------------------------------
      1          6           0       -1.920713   -0.771281    0.039448
      2          6           0       -2.331716    0.643124   -0.006392
      3          6           0       -1.417864    1.615791   -0.021229
      4          6           0        0.044314    1.351387   -0.000186
      5          6           0        0.470554   -0.091392    0.015325
      6          6           0       -0.464653   -1.055766    0.030611
      7          1           0       -3.397060    0.837906   -0.025550
      8          1           0       -1.687049    2.664508   -0.053854
      9          1           0       -0.193452   -2.102542    0.043277
     10          8           0        0.819620    2.280791   -0.051947
     11          8           0       -2.728400   -1.681751    0.008218
     12          6           0        1.928642   -0.446364    0.023335
     13          8           0        2.846784    0.319983    0.106716
     14          8           0        2.107135   -1.786495   -0.104231
     15          1           0        3.065055   -1.933088   -0.119398
 ---------------------------------------------------------------------
 Rotational constants (GHZ):           1.8161637           0.9375146           0.6190336
 Standard basis: def2TZVP (5D, 7F)
 There are   420 symmetry adapted cartesian basis functions of A   symmetry.
 There are   365 symmetry adapted basis functions of A   symmetry.
   365 basis functions,   593 primitive gaussians,   420 cartesian basis functions
    39 alpha electrons       39 beta electrons
       nuclear repulsion energy       562.4081455498 Hartrees.
 NAtoms=   15 NActive=   15 NUniq=   15 SFac= 1.00D+00 NAtFMM=   60 NAOKFM=F Big=F
 Integral buffers will be    131072 words long.
 Raffenetti 2 integral format.
 Two-electron integral symmetry is turned on.
 One-electron integrals computed using PRISM.
   1 Symmetry operations used in ECPInt.
 ECPInt:  NShTT=    9453 NPrTT=   30144 LenC2=    8977 LenP2D=   21883.
 LDataN:  DoStor=T MaxTD1= 6 Len=  172
 NBasis=   365 RedAO= T EigKep=  1.48D-05  NBF=   365
 NBsUse=   365 1.00D-06 EigRej= -1.00D+00 NBFU=   365
 Initial guess from the checkpoint file:  "C6H4O2.chk"
 B after Tr=     0.000000    0.000000    0.000000
         Rot=    0.999999   -0.000102   -0.000088   -0.001667 Ang=  -0.19 deg.
 ExpMin= 9.52D-02 ExpMax= 2.70D+04 ExpMxC= 9.22D+02 IAcc=2 IRadAn=         4 AccDes= 0.00D+00
 Harris functional with IExCor=  402 and IRadAn=       4 diagonalized for initial guess.
 HarFok:  IExCor=  402 AccDes= 0.00D+00 IRadAn=         4 IDoV= 1 UseB2=F ITyADJ=14
 ICtDFT=  3500011 ScaDFX=  1.000000  1.000000  1.000000  1.000000
 FoFCou: FMM=F IPFlag=           0 FMFlag=      100000 FMFlg1=           0
         NFxFlg=           0 DoJE=T BraDBF=F KetDBF=T FulRan=T
         wScrn=  0.000000 ICntrl=       500 IOpCl=  0 I1Cent=   200000004 NGrid=           0
         NMat0=    1 NMatS0=      1 NMatT0=    0 NMatD0=    1 NMtDS0=    0 NMtDT0=    0
 Petite list used in FoFCou.
[...]
 ! D24   D(12,5,6,9)            -5.0901         -DE/DX =    0.0                 !
 ! D25   D(4,5,12,13)           46.4335         -DE/DX =    0.0                 !
 ! D26   D(4,5,12,14)         -135.9392         -DE/DX =    0.0                 !
 ! D27   D(6,5,12,13)         -130.9636         -DE/DX =    0.0                 !
 ! D28   D(6,5,12,14)           46.6637         -DE/DX =    0.0                 !
 ! D29   D(5,12,14,15)        -177.0646         -DE/DX =    0.0                 !
 ! D30   D(13,12,14,15)          0.5685         -DE/DX =    0.0                 !
 --------------------------------------------------------------------------------
 GradGradGradGradGradGradGradGradGradGradGradGradGradGradGradGradGradGrad


 ----------------------------------------------------------------------

 Electric dipole moment (input orientation):
 (Debye = 10**-18 statcoulomb cm , SI units = C m)
                  (au)            (Debye)         (10**-30 SI)
   Tot        0.482796D+00      0.122714D+01      0.409331D+01
   x         -0.263663D-02     -0.670166D-02     -0.223543D-01
   y          0.419093D+00      0.106523D+01      0.355322D+01
   z         -0.239679D+00     -0.609203D+00     -0.203208D+01

 Dipole polarizability, Alpha (input orientation).
 (esu units = cm**3 , SI units = C**2 m**2 J**-1)
 Alpha(0;0):
               (au)            (10**-24 esu)      (10**-40 SI)
   iso        0.914100D+02      0.135456D+02      0.150715D+02
   aniso      0.676444D+02      0.100239D+02      0.111531D+02
   xx         0.940407D+02      0.139354D+02      0.155052D+02
   yx         0.962530D+01      0.142632D+01      0.158700D+01
   yy         0.127813D+03      0.189399D+02      0.210735D+02
   zx        -0.538997D+00     -0.798711D-01     -0.888686D-01
   zy         0.211331D+01      0.313160D+00      0.348437D+00
   zz         0.523765D+02      0.776140D+01      0.863572D+01

 ----------------------------------------------------------------------

 Dipole orientation:
     6          0.02683592         -1.51850448          2.22884614
     6          2.38650042         -0.61958594          1.03519412
     6          2.32820977          0.82008563         -1.03667347
     6         -0.07795397          1.61434714         -2.23118156
     6         -2.46331729          0.58006715         -1.11558803
     6         -2.38903680         -0.81444544          0.99551234
     1          4.13131311         -1.17702625          1.94793594
     1          4.02276290          1.53948906         -1.93090670
     1         -4.08700684         -1.52704950          1.88763270
     8         -0.09277863          3.10827435         -3.96906418
     8          0.04555291         -2.79212410          4.14374811
     6         -4.89393975          1.05492771         -2.48149912
     8         -5.17365202          0.76992267         -4.71186439
     8         -6.76461536          1.75006134         -0.89068290
     1         -8.28825857          1.93544519         -1.89666171

 Electric dipole moment (dipole orientation):
 (Debye = 10**-18 statcoulomb cm , SI units = C m)
                  (au)            (Debye)         (10**-30 SI)
   Tot        0.482796D+00      0.122714D+01      0.409331D+01
   x          0.000000D+00      0.000000D+00      0.000000D+00
   y          0.000000D+00      0.000000D+00      0.000000D+00
   z          0.482796D+00      0.122714D+01      0.409331D+01

 Dipole polarizability, Alpha (dipole orientation).
 (esu units = cm**3 , SI units = C**2 m**2 J**-1)
 Alpha(0;0):
               (au)            (10**-24 esu)      (10**-40 SI)
   iso        0.914100D+02      0.135456D+02      0.150715D+02
   aniso      0.676444D+02      0.100239D+02      0.111531D+02
   xx         0.941066D+02      0.139452D+02      0.155161D+02
   yx        -0.456142D+01     -0.675933D+00     -0.752077D+00
   yy         0.728187D+02      0.107906D+02      0.120062D+02
   zx         0.858907D+01      0.127277D+01      0.141615D+01
   zy        -0.335842D+02     -0.497667D+01     -0.553729D+01
   zz         0.107305D+03      0.159009D+02      0.176922D+02

 ----------------------------------------------------------------------
 1\1\GINC-N12\Freq\RB3LYP\def2TZVP\C7H4O4\UNKNOWN\20-Jan-2025\0\\#N Geo
 m=AllCheck Guess=TCheck SCRF=Check GenChk RB3LYP/def2TZVP Freq\\opt me
 ta\\0,1\C,0.0103050665,1.4228093796,0.1119261604\C,1.2609034919,0.6422
 962903,0.0057625039\C,1.233632129,-0.6877464349,-0.1110994878\C,-0.037
 508954,-1.4491471738,-0.1551906562\C,-1.3012538373,-0.6689721795,0.033
 7324668\C,-1.2657102697,0.6672551507,0.1194976437\H,2.1824969298,1.210
 9412543,0.01700135\H,2.1317114286,-1.2846738332,-0.2115386386\H,-2.165
 6029774,1.2614199744,0.2173784097\O,-0.0428357143,-2.6399533301,-0.384
 8402055\O,0.0168106193,2.6370585516,0.1938614047\C,-2.5843068794,-1.42
 52371938,0.1814585704\O,-2.7253978991,-2.375359124,0.8991123616\O,-3.5
 799687175,-0.8802468131,-0.5503626779\H,-4.3836334763,-1.3936049885,-0
 .3668411253\\Version=ES64L-G16RevA.03\State=1-A\HF=-570.2503434\RMSD=7
 .835e-10\RMSF=1.894e-05\ZeroPoint=0.0995091\Thermal=0.108719\Dipole=-0
 .0026366,0.4190927,-0.2396789\DipoleDeriv=0.9270626,0.0635006,-0.05226
 37,0.0333317,1.2416368,0.063506,-0.028634,0.0597049,0.2785108,-0.15918
 34,0.2738593,0.0309721,0.2427837,-0.0939222,-0.0129748,0.031859,-0.003
 4249,-0.0971539,-0.1731805,-0.2909817,-0.019435,-0.2157131,-0.0527364,
 0.0073627,-0.0163828,0.0236844,-0.0901641,0.8980148,0.0578783,-0.04056
 07,-0.0769219,1.0737733,0.1667839,-0.0326908,0.1350967,0.297492,-0.347
 0117,0.1348976,0.0174134,0.0657663,-0.1579018,-0.0028057,0.0084345,-0.
 0101155,-0.0244815,-0.2638555,-0.3276483,0.0155795,-0.1941661,-0.05061
 59,0.0260947,-0.0394544,-0.0128412,-0.0504383,-0.0087447,-0.0301724,0.
 0038276,-0.0410047,0.0490789,-0.0070626,0.0015843,-0.0049238,0.1314372
 ,-0.006397,0.0196667,0.0064847,0.0353658,0.0457672,-0.0104195,0.006751
 ,-0.0179162,0.1274557,0.0133946,0.0151651,0.0111602,0.0258655,0.066843
 6,-0.0076607,0.0264124,0.0018812,0.1198204,-0.5034041,0.0078179,0.0091
 641,0.0373745,-0.9990657,-0.1255743,0.0212769,-0.1355517,-0.3304849,-0
 .5307822,-0.0336141,0.0165244,-0.0561879,-1.1523685,-0.0532315,0.00526
 58,-0.0556002,-0.3418668,1.5773371,0.3225821,0.3518015,0.1320004,1.011
 7319,-0.6351369,0.444184,-0.4527332,0.888924,-0.7033315,-0.3302946,0.0
 553895,-0.1075971,-0.8125578,0.3859381,-0.0955392,0.2966569,-0.6202772
 ,-1.0609177,0.1377983,-0.4375352,0.1654424,-0.4146869,0.1533285,-0.395
 9805,0.1100101,-0.5883292,0.3409991,-0.0204549,0.0314776,-0.0463394,0.
 2450235,0.0518521,0.0629139,0.0660725,0.2995559\Polar=94.0407168,9.625
 296,127.8128951,-0.5389969,2.1133055,52.3765292\Quadrupole=12.3718324,
 -12.7350483,0.3632159,-0.4575256,1.1533339,1.2740305\PG=C01 [X(C7H4O4)
 ]\NImag=0\\0.51881109,-0.00503758,0.88232626,-0.01511350,0.04774648,0.
 19644754,-0.20626800,0.02519476,0.00657255,0.61101291,0.02265487,-0.08
 963366,-0.00142653,0.08480545,0.82019015,0.00704376,-0.00221011,-0.079
 47526,-0.01169789,0.05656114,0.12456088,0.00812412,0.02533414,0.001470
 69,-0.12629978,-0.00233099,0.00339777,0.59686922,0.01015707,-0.0316491
 3,-0.00332126,-0.01473204,-0.51105582,-0.03943223,-0.07335169,0.824677
 79,0.00126815,-0.00396199,0.00275771,0.00264309,-0.04121822,-0.0541378
 9,-0.02660645,0.07507475,0.12959738,0.03016902,-0.00079327,-0.00252188
 ,0.00630271,-0.00965948,-0.00181486,-0.20118679,-0.01929483,0.00362124
 ,0.49827150,-0.00064655,0.00308036,0.00190975,-0.02487072,-0.02977167,
 -0.00261027,-0.02210343,-0.08555385,0.00114345,0.01746206,0.86781420,-
 0.00337311,0.00208716,-0.01645280,-0.00076004,-0.00405301,0.00280072,0
 .00257447,0.00329945,-0.07925545,-0.01580087,0.11960723,0.21573079,0.0
 0704034,-0.02420857,-0.00242563,-0.00196370,0.00334477,0.00059548,-0.0
 3041757,0.01050656,0.00342726,-0.17851023,0.00125813,0.00983387,0.5271
 8048,-0.00847064,-0.03026843,0.00310717,0.00324460,-0.00301309,-0.0010
 6980,-0.00816842,0.01772959,-0.00030255,0.01569768,-0.08601817,0.00196
 743,0.03085260,0.77579822,0.00014143,-0.00120539,0.00377724,-0.0006754
 8,-0.00008626,0.00014262,0.00213021,-0.00295338,0.01527936,0.01110001,
 0.00380906,-0.07726699,-0.02486578,0.02344611,0.14944698,-0.20180583,-
 0.01852880,0.00499501,-0.03043743,-0.00905781,0.00134710,-0.00258549,-
 0.00367033,0.00014853,0.00956411,0.02531652,0.00064250,-0.12324676,-0.
 00198861,0.00122023,0.60356086,-0.01801698,-0.08343292,-0.00210212,0.0
 0986884,0.01849580,0.00035475,-0.00367365,-0.00295794,-0.00014647,0.00
 933466,-0.02971441,-0.00431196,-0.00955539,-0.49017985,-0.02833600,-0.
 06722520,0.81034058,0.00569876,0.00096421,-0.08011717,0.00277490,0.000
 31531,0.01622929,0.00011655,-0.00002057,0.00013018,0.00057113,-0.00467
 796,0.00394933,0.00023016,-0.03110396,-0.05510328,-0.03379606,0.052248
 92,0.12893669,-0.02010820,-0.01827087,-0.00043199,-0.26475420,-0.12453
 453,-0.00172757,0.00627159,0.00200186,0.00019409,0.00006348,0.00164637
 ,0.00072813,0.00087354,-0.00001739,-0.00013433,-0.00289627,0.00432926,
 0.00042866,0.27583684,0.01562484,0.01077427,-0.00007457,-0.12528656,-0
 .13166884,-0.00262917,-0.02919516,-0.01195284,-0.00049040,0.00439812,-
 0.00204776,-0.00124694,-0.00034383,-0.00025186,0.00016771,0.00283153,-
 0.00213619,-0.00038282,0.13521463,0.13652350,0.00210245,0.00135661,0.0
 0393419,-0.00175898,-0.00237680,-0.04048073,-0.00202732,-0.00298639,0.
 00866284,0.00073098,-0.00161142,0.01352394,0.00005868,0.00031457,-0.00
 188724,0.00019246,-0.00034996,0.00143991,0.00151009,0.00395086,0.02588
 289,-0.00016565,-0.00168911,0.00050803,0.00736180,-0.00286131,-0.00005
 338,-0.25431800,0.12775223,0.02145032,-0.02064129,0.01835658,0.0033266
 3,-0.00341708,-0.00410814,0.00008496,0.00093904,-0.00012919,-0.0001288
 9,0.00088168,0.00035781,-0.00034368,0.26497135,-0.00446480,-0.00217525
 ,-0.00145849,0.02829582,-0.01280148,-0.00334170,0.12872511,-0.13896363
 ,-0.01604762,-0.01528505,0.01013126,0.00115205,-0.00267575,-0.00187578
 ,-0.00007978,0.00020277,-0.00021261,0.00022484,-0.00029207,0.00100514,
 0.00084671,-0.13797107,0.14522912,-0.00022759,-0.00123774,0.01356914,0
 .00250979,-0.00132541,0.00892129,0.02253231,-0.01671070,-0.04351211,-0
 .00030573,0.00006365,0.00408994,-0.00023538,-0.00021166,0.00119484,0.0
 0008273,0.00011922,-0.00199346,-0.00032471,0.00066930,-0.00700930,-0.0
 2434996,0.01817657,0.02864862,-0.01986242,0.01841084,0.00302221,-0.002
 93450,-0.00420831,-0.00019424,0.00086797,-0.00000324,-0.00014977,-0.00
 043765,-0.00183480,0.00048836,0.00691567,-0.00229755,-0.00014675,-0.25
 496269,0.12895728,0.02310037,-0.00102372,0.00075045,0.00011945,0.00003
 708,0.00012898,0.00001590,0.26615486,-0.01484904,0.01090012,0.00138552
 ,-0.00272328,-0.00204408,-0.00012313,0.00015353,-0.00012825,0.00001834
 ,-0.00469681,-0.00219267,-0.00022456,0.02709003,-0.01353935,-0.0033562
 8,0.12815000,-0.13936373,-0.01447149,-0.00075597,0.00059596,0.00002280
 ,0.00011630,0.00003236,0.00000179,-0.13820187,0.14583543,0.00044384,-0
 .00101154,0.00460815,0.00012092,0.00015400,0.00112790,-0.00011065,0.00
 023325,-0.00183509,0.00078544,-0.00081328,0.01253249,0.00429145,-0.002
 83624,0.00957952,0.02239435,-0.01455527,-0.04391824,0.00004726,-0.0000
 7314,0.00072723,0.00003214,0.00003398,-0.00012102,-0.02506998,0.016610
 35,0.02849441,-0.01084723,0.00015819,0.00054587,-0.00504758,-0.0038178
 4,0.00009883,0.00980322,-0.04729046,-0.00753864,-0.10278901,-0.0035536
 0,0.00108746,0.01274721,0.04239030,0.00816571,-0.00660440,0.00318573,0
 .00080875,0.00045782,-0.00194319,-0.00004081,0.00458962,0.00202665,-0.
 00013742,0.00060771,0.00210932,-0.00053749,0.09339492,-0.00045801,-0.0
 0170892,-0.00113602,-0.00928146,0.00766229,0.00117402,-0.02801416,-0.0
 6548198,-0.01426674,-0.00676568,-0.66190002,-0.11673103,0.03250072,-0.
 05772107,-0.01562654,0.00896164,0.00657237,0.00015378,-0.00002122,-0.0
 0243238,0.00070793,-0.00065843,0.00135516,0.00048157,-0.00006789,-0.00
 229051,0.00042937,0.00780861,0.77770773,0.00072834,-0.00044297,0.00219
 282,-0.00198574,0.00136150,0.00165685,-0.00398807,-0.01366570,0.019466
 71,0.00111488,-0.11420390,-0.08370845,0.00565074,-0.01587350,0.0161231
 7,0.00270611,0.00063598,0.00131898,-0.00012585,-0.00025400,-0.00273907
 ,-0.00026248,0.00053102,-0.00175367,-0.00021610,-0.00056062,-0.0026241
 8,-0.00465270,0.14317492,0.05191902,-0.10416264,-0.00313370,0.00165210
 ,0.01201891,0.04606334,0.00336864,-0.00531731,0.00388721,0.00035535,-0
 .01122614,0.00018099,0.00103362,-0.00554659,-0.00452652,-0.00033224,0.
 00950669,-0.04715124,-0.00285189,0.00437373,-0.00229522,-0.00042991,0.
 00053854,0.00195780,0.00021371,0.00446244,0.00217029,-0.00031711,0.003
 82240,0.00017240,-0.00022783,0.09038984,-0.00084396,-0.66701352,-0.040
 82869,0.02572782,-0.06602507,-0.00709222,0.00933911,0.00761932,0.00024
 799,0.00067978,-0.00170075,-0.00084555,-0.00913056,0.00747786,0.000894
 19,-0.02976912,-0.06660589,-0.00490443,0.00087680,0.00146312,0.0001520
 3,-0.00013218,-0.00233338,0.00001924,-0.00071887,0.00134452,0.00033775
 ,-0.00036819,0.00116613,0.00023598,0.00441373,0.78682311,0.00148288,-0
 .04095875,-0.06405291,0.00235142,-0.00804021,0.02053052,0.00091823,0.0
 0046393,0.00157702,0.00070629,-0.00048630,0.00202568,-0.00046630,-0.00
 049276,0.00129450,-0.00125763,-0.00326304,0.02081889,-0.00017491,0.000
 33882,-0.00181254,-0.00016929,0.00005148,-0.00284044,-0.00043840,0.000
 08825,-0.00182225,-0.00014395,0.00021827,-0.00017028,-0.00252005,0.051
 35785,0.02706275,-0.00933462,0.00040096,0.00289111,0.00181091,-0.00131
 511,-0.00057027,0.00040087,0.00297606,0.00073866,-0.03064426,-0.004235
 20,0.00231172,-0.17423290,-0.04039868,0.00815472,0.01402073,-0.0111064
 8,0.00364153,0.00019555,-0.00003231,-0.00006973,-0.00004765,-0.0003197
 8,0.00015117,0.00091620,0.00315333,-0.00186776,0.00357560,-0.00611594,
 -0.00170569,0.00403770,0.00462293,-0.00036718,0.56876616,0.00107302,-0
 .00285172,-0.00076955,0.00090196,-0.00082482,-0.00008076,0.00533353,-0
 .00372149,-0.00042633,0.00724063,0.03486347,0.00051684,-0.02249474,-0.
 10545143,-0.00505770,-0.03127221,-0.02206605,0.00398534,0.00005454,-0.
 00000890,-0.00013396,0.00167378,0.00090988,0.00005160,-0.00023145,-0.0
 0007763,-0.00066746,-0.00474617,-0.01167474,-0.00026273,-0.00019457,-0
 .00127072,0.00023868,0.10293964,0.70619597,0.00077795,-0.00251459,0.01
 514448,-0.00046623,0.00015319,-0.00226401,-0.00039549,-0.00063945,0.00
 168615,0.00412309,-0.00257080,0.00301397,0.00703538,-0.00967202,-0.076
 12087,-0.00323930,0.00067671,0.00773493,-0.00010013,0.00011854,-0.0002
 4647,-0.00004923,0.00000718,0.00108908,-0.00017527,0.00137757,-0.00688
 204,0.00165460,0.00358233,-0.00323123,-0.00080247,0.00035403,-0.003295
 55,0.01652249,-0.34411715,0.48009435,0.00468713,0.00080067,-0.00276881
 ,-0.00056636,0.00031257,0.00040615,-0.00010112,-0.00029485,-0.00010489
 ,0.00259856,0.00215712,0.00014195,0.00657472,-0.03222345,0.01900687,-0
 .00922195,-0.00095727,-0.00049746,-0.00013424,0.00000044,0.00001620,-0
 .00005558,0.00003256,-0.00008436,-0.00000328,-0.00046743,0.00108790,-0
 .00407225,-0.00036596,0.00200137,-0.00178736,-0.00248188,0.00048199,-0
 .12697692,-0.07925117,0.04921732,0.10341809,0.00379856,0.00063147,-0.0
 0325235,-0.00087408,0.00059237,0.00051556,-0.00123583,0.00073031,0.000
 18377,0.00284513,-0.01182158,-0.00052813,-0.02360463,-0.02623988,0.028
 77578,-0.00465191,0.00302135,-0.00198477,-0.00017081,0.00009775,0.0000
 8511,-0.00044763,-0.00015171,-0.00016865,0.00008848,-0.00004269,0.0021
 9330,0.00321187,0.00681789,-0.00046095,-0.00168276,-0.00110299,0.00058
 082,-0.07823709,-0.49455911,0.31479679,0.07009926,0.55534173,-0.001143
 34,0.00071941,-0.00115480,0.00028956,-0.00002767,0.00018870,0.00047702
 ,0.00012907,-0.00010911,-0.00273688,0.00223478,-0.00055161,0.00741506,
 0.02554039,0.00454643,0.00460316,-0.00133880,0.00086064,0.00008990,-0.
 00002682,-0.00003117,0.00013061,0.00001211,-0.00014253,-0.00028166,-0.
 00036928,-0.00010951,0.00112472,-0.00191951,0.00035456,0.00083802,0.00
 069633,0.00040822,0.05127309,0.31068229,-0.30727377,-0.03649148,-0.396
 22509,0.33573512,0.00399960,0.00191801,0.00120098,-0.00038122,0.000578
 22,-0.00010323,-0.00198002,0.00102617,0.00039528,-0.00071728,-0.007615
 78,-0.00160470,-0.04124703,0.00725334,-0.02027806,-0.00641662,0.001332
 04,-0.00060397,-0.00006889,-0.00007010,-0.00004015,-0.00060906,-0.0003
 0836,0.00009614,-0.00090275,-0.00093733,-0.00107159,-0.00012603,0.0018
 0459,0.00096367,-0.00119921,-0.00254927,-0.00032965,-0.20627304,0.0392
 0885,-0.07521746,0.01741624,0.03259454,-0.03143259,0.56543013,-0.00015
 743,0.00086596,0.00075341,-0.00033971,-0.00004059,-0.00009922,-0.00078
 695,0.00063123,0.00019910,-0.00127760,-0.00535634,-0.00037225,-0.01456
 710,0.01183470,-0.00389735,0.00026113,-0.00200433,-0.00024351,-0.00007
 025,0.00004804,0.00001244,-0.00025292,-0.00013284,0.00009180,-0.000787
 92,0.00077961,-0.00051097,0.00091097,0.00213711,-0.00024467,-0.0000007
 1,0.00022076,-0.00018283,0.01253226,-0.11524336,0.04293454,0.04420473,
 -0.02756309,0.06031341,0.13794034,0.29801443,0.00081407,0.00081092,-0.
 00108182,-0.00006112,0.00008449,0.00019962,-0.00025511,0.00016374,-0.0
 0033043,0.00129301,-0.00079327,-0.00042309,-0.00675699,0.00272120,0.00
 739913,-0.00095973,0.00018543,-0.00044022,-0.00000242,-0.00004848,0.00
 002615,-0.00008616,-0.00004347,-0.00014721,-0.00012985,-0.00038296,0.0
 0022075,-0.00070622,-0.00021062,0.00134074,-0.00018969,-0.00077255,0.0
 0027652,-0.05432830,0.05204182,-0.11829084,-0.03759565,0.05562335,-0.0
 2879998,0.04544799,-0.16652991,0.18818560,-0.00027671,-0.00055568,0.00
 040325,0.00014552,0.00002617,-0.00009627,-0.00013093,0.00033031,0.0001
 5776,-0.00081674,-0.00151770,-0.00062999,-0.00275010,0.00276088,-0.003
 57151,0.00058601,0.00080759,0.00050745,0.00003129,-0.00001146,-0.00001
 973,-0.00006481,-0.00005281,0.00006339,0.00016507,-0.00031107,-0.00022
 869,0.00048801,0.00050080,-0.00000063,0.00008900,0.00033386,-0.0000734
 7,-0.04621432,-0.02023565,0.00111476,0.00822431,-0.00173310,0.00584482
 ,-0.32692483,-0.17760883,0.05351617,0.36744922,-0.00036337,0.00015510,
 -0.00053274,0.00006861,-0.00006148,0.00008314,-0.00002514,0.00007669,-
 0.00000709,0.00011468,0.00018791,-0.00031673,0.00102776,0.00171854,0.0
 0350582,0.00044040,0.00024383,-0.00010290,0.00000965,-0.00000900,0.000
 00946,-0.00000671,-0.00001624,-0.00002060,0.00001587,0.00019091,0.0004
 7589,-0.00008221,-0.00020907,0.00002966,0.00013896,-0.00006249,0.00008
 581,0.01513541,0.01578064,-0.00448687,-0.00156533,-0.00575182,-0.00042
 062,-0.21217526,-0.16419130,0.05715030,0.19726669,0.15194777,-0.000644
 07,-0.00014172,-0.00009650,0.00014325,-0.00007551,-0.00000051,-0.00023
 416,0.00036549,0.00002274,-0.00086585,-0.00100072,-0.00000846,-0.00378
 800,0.00446562,0.00159462,0.00092052,0.00018261,0.00015355,0.00002378,
 -0.00001888,0.00000937,-0.00008961,-0.00006489,0.00000683,0.00005575,-
 0.00001630,0.00002189,0.00027129,-0.00003175,-0.00014598,0.00020976,0.
 00014804,-0.00000012,-0.02677557,-0.01600093,0.00884183,0.00518289,-0.
 00013454,-0.00392119,0.08257735,0.06777600,-0.04813493,-0.05698732,-0.
 05545253,0.04165687\\0.00001872,-0.00000868,0.00001482,-0.00001050,0.0
 0003748,-0.00002599,-0.00000737,-0.00001570,-0.00002220,-0.00001809,0.
 00004553,0.00000773,0.00001496,-0.00005716,0.00004574,-0.00001059,0.00
 001504,-0.00000066,0.00001240,-0.00001977,0.00001370,0.00000553,-0.000
 00195,0.00000966,-0.00000357,-0.00000364,-0.00001050,0.00002058,-0.000
 02323,-0.00001823,-0.00001409,0.00000621,0.00000144,-0.00001778,0.0000
 1955,-0.00002521,0.00000317,0.00000368,0.00000495,-0.00000601,0.000002
 98,0.00000232,0.00001264,-0.00000036,0.00000244\\\@


 There was a great rattling of the words for the fewness of ideas.
                   -- Charles Baxter in Gryphon
 Job cpu time:       0 days  0 hours 29 minutes 38.9 seconds.
 Elapsed time:       0 days  0 hours 29 minutes 41.9 seconds.
 File lengths (MBytes):  RWF=    187 Int=      0 D2E=      0 Chk=     12 Scr=      1
 Normal termination of Gaussian 16 at Mon Jan 20 16:54:18 2025.
