Single-Point                                                            
SP        RB3LYP                                                      def2TZVP            
Number of atoms                            I               12
Info1-9                                    I   N=           9
          19          19           0           0           0         110
           1          18        -502
Full Title                                 C   N=           1
Single-Point
Route                                      C   N=           4
#P B3LYP/def2tzvp nosymm Density=Current        
Charge                                     I                0
Multiplicity                               I                1
Number of electrons                        I               42
Number of alpha electrons                  I               21
Number of beta electrons                   I               21
Number of basis functions                  I              222
Number of independent functions            I              222
Number of point charges in /Mol/           I                0
Number of translation vectors              I                0
Atomic numbers                             I   N=          12
           6           6           6           6           6           6
           1           1           1           1           1           1
Nuclear charges                            R   N=          12
  6.00000000E+00  6.00000000E+00  6.00000000E+00  6.00000000E+00  6.00000000E+00
  6.00000000E+00  1.00000000E+00  1.00000000E+00  1.00000000E+00  1.00000000E+00
  1.00000000E+00  1.00000000E+00
Current cartesian coordinates              R   N=          36
  2.27649972E+00  1.31433054E+00  0.00000000E+00  0.00000000E+00  2.62865878E+00
  0.00000000E+00 -2.27649972E+00  1.31433054E+00  0.00000000E+00 -2.27649972E+00
 -1.31433054E+00  0.00000000E+00  0.00000000E+00 -2.62865878E+00  0.00000000E+00
  2.27649972E+00 -1.31433054E+00  0.00000000E+00  4.04880950E+00  2.33759042E+00
  0.00000000E+00  0.00000000E+00  4.67515297E+00  0.00000000E+00 -4.04880950E+00
  2.33759042E+00  0.00000000E+00 -4.04880950E+00 -2.33759042E+00  0.00000000E+00
  0.00000000E+00 -4.67515297E+00  0.00000000E+00  4.04880950E+00 -2.33759042E+00
  0.00000000E+00
Number of symbols in /Mol/                 I                0
Force Field                                I                0
Atom Types                                 C   N=          12
                                                            
                                                            
                        
Int Atom Types                             I   N=          12
           0           0           0           0           0           0
           0           0           0           0           0           0
MM charges                                 R   N=          12
  0.00000000E+00  0.00000000E+00  0.00000000E+00  0.00000000E+00  0.00000000E+00
  0.00000000E+00  0.00000000E+00  0.00000000E+00  0.00000000E+00  0.00000000E+00
  0.00000000E+00  0.00000000E+00
Integer atomic weights                     I   N=          12
          12          12          12          12          12          12
           1           1           1           1           1           1
Real atomic weights                        R   N=          12
  1.20000000E+01  1.20000000E+01  1.20000000E+01  1.20000000E+01  1.20000000E+01
  1.20000000E+01  1.00782504E+00  1.00782504E+00  1.00782504E+00  1.00782504E+00
  1.00782504E+00  1.00782504E+00
Atom fragment info                         I   N=          12
           0           0           0           0           0           0
           0           0           0           0           0           0
Atom residue num                           I   N=          12
           0           0           0           0           0           0
           0           0           0           0           0           0
Nuclear spins                              I   N=          12
           0           0           0           0           0           0
           1           1           1           1           1           1
Nuclear ZEff                               R   N=          12
 -3.60000000E+00 -3.60000000E+00 -3.60000000E+00 -3.60000000E+00 -3.60000000E+00
 -3.60000000E+00 -1.00000000E+00 -1.00000000E+00 -1.00000000E+00 -1.00000000E+00
 -1.00000000E+00 -1.00000000E+00
Nuclear ZNuc                               R   N=          12
  6.00000000E+00  6.00000000E+00  6.00000000E+00  6.00000000E+00  6.00000000E+00
  6.00000000E+00  1.00000000E+00  1.00000000E+00  1.00000000E+00  1.00000000E+00
  1.00000000E+00  1.00000000E+00
Nuclear QMom                               R   N=          12
  0.00000000E+00  0.00000000E+00  0.00000000E+00  0.00000000E+00  0.00000000E+00
  0.00000000E+00  0.00000000E+00  0.00000000E+00  0.00000000E+00  0.00000000E+00
  0.00000000E+00  0.00000000E+00
Nuclear GFac                               R   N=          12
  0.00000000E+00  0.00000000E+00  0.00000000E+00  0.00000000E+00  0.00000000E+00
  0.00000000E+00  2.79284600E+00  2.79284600E+00  2.79284600E+00  2.79284600E+00
  2.79284600E+00  2.79284600E+00
MicOpt                                     I   N=          12
          -1          -1          -1          -1          -1          -1
          -1          -1          -1          -1          -1          -1
Number of residues                         I                0
Number of secondary structures             I                0
Number of contracted shells                I               90
Number of primitive shells                 I              156
Pure/Cartesian d shells                    I                0
Pure/Cartesian f shells                    I                0
Highest angular momentum                   I                3
Largest degree of contraction              I                6
Shell types                                I   N=          90
           0           0           0           0           0           1
           1           1          -2          -2          -3           0
           0           0           0           0           1           1
           1          -2          -2          -3           0           0
           0           0           0           1           1           1
          -2          -2          -3           0           0           0
           0           0           1           1           1          -2
          -2          -3           0           0           0           0
           0           1           1           1          -2          -2
          -3           0           0           0           0           0
           1           1           1          -2          -2          -3
           0           0           0           1           0           0
           0           1           0           0           0           1
           0           0           0           1           0           0
           0           1           0           0           0           1
Number of primitives per shell             I   N=          90
           6           2           1           1           1           4
           1           1           1           1           1           6
           2           1           1           1           4           1
           1           1           1           1           6           2
           1           1           1           4           1           1
           1           1           1           6           2           1
           1           1           4           1           1           1
           1           1           6           2           1           1
           1           4           1           1           1           1
           1           6           2           1           1           1
           4           1           1           1           1           1
           3           1           1           1           3           1
           1           1           3           1           1           1
           3           1           1           1           3           1
           1           1           3           1           1           1
Shell to atom map                          I   N=          90
           1           1           1           1           1           1
           1           1           1           1           1           2
           2           2           2           2           2           2
           2           2           2           2           3           3
           3           3           3           3           3           3
           3           3           3           4           4           4
           4           4           4           4           4           4
           4           4           5           5           5           5
           5           5           5           5           5           5
           5           6           6           6           6           6
           6           6           6           6           6           6
           7           7           7           7           8           8
           8           8           9           9           9           9
          10          10          10          10          11          11
          11          11          12          12          12          12
Primitive exponents                        R   N=         156
  1.35753497E+04  2.03523337E+03  4.63225624E+02  1.31200196E+02  4.28530159E+01
  1.55841858E+01  6.20671385E+00  2.57648965E+00  5.76963394E-01  2.29728314E-01
  9.51644400E-02  3.46972322E+01  7.95826228E+00  2.37808269E+00  8.14332082E-01
  2.88875473E-01  1.00568237E-01  1.09700000E+00  3.18000000E-01  7.61000000E-01
  1.35753497E+04  2.03523337E+03  4.63225624E+02  1.31200196E+02  4.28530159E+01
  1.55841858E+01  6.20671385E+00  2.57648965E+00  5.76963394E-01  2.29728314E-01
  9.51644400E-02  3.46972322E+01  7.95826228E+00  2.37808269E+00  8.14332082E-01
  2.88875473E-01  1.00568237E-01  1.09700000E+00  3.18000000E-01  7.61000000E-01
  1.35753497E+04  2.03523337E+03  4.63225624E+02  1.31200196E+02  4.28530159E+01
  1.55841858E+01  6.20671385E+00  2.57648965E+00  5.76963394E-01  2.29728314E-01
  9.51644400E-02  3.46972322E+01  7.95826228E+00  2.37808269E+00  8.14332082E-01
  2.88875473E-01  1.00568237E-01  1.09700000E+00  3.18000000E-01  7.61000000E-01
  1.35753497E+04  2.03523337E+03  4.63225624E+02  1.31200196E+02  4.28530159E+01
  1.55841858E+01  6.20671385E+00  2.57648965E+00  5.76963394E-01  2.29728314E-01
  9.51644400E-02  3.46972322E+01  7.95826228E+00  2.37808269E+00  8.14332082E-01
  2.88875473E-01  1.00568237E-01  1.09700000E+00  3.18000000E-01  7.61000000E-01
  1.35753497E+04  2.03523337E+03  4.63225624E+02  1.31200196E+02  4.28530159E+01
  1.55841858E+01  6.20671385E+00  2.57648965E+00  5.76963394E-01  2.29728314E-01
  9.51644400E-02  3.46972322E+01  7.95826228E+00  2.37808269E+00  8.14332082E-01
  2.88875473E-01  1.00568237E-01  1.09700000E+00  3.18000000E-01  7.61000000E-01
  1.35753497E+04  2.03523337E+03  4.63225624E+02  1.31200196E+02  4.28530159E+01
  1.55841858E+01  6.20671385E+00  2.57648965E+00  5.76963394E-01  2.29728314E-01
  9.51644400E-02  3.46972322E+01  7.95826228E+00  2.37808269E+00  8.14332082E-01
  2.88875473E-01  1.00568237E-01  1.09700000E+00  3.18000000E-01  7.61000000E-01
  3.40613410E+01  5.12357460E+00  1.16466260E+00  3.27230410E-01  1.03072410E-01
  8.00000000E-01  3.40613410E+01  5.12357460E+00  1.16466260E+00  3.27230410E-01
  1.03072410E-01  8.00000000E-01  3.40613410E+01  5.12357460E+00  1.16466260E+00
  3.27230410E-01  1.03072410E-01  8.00000000E-01  3.40613410E+01  5.12357460E+00
  1.16466260E+00  3.27230410E-01  1.03072410E-01  8.00000000E-01  3.40613410E+01
  5.12357460E+00  1.16466260E+00  3.27230410E-01  1.03072410E-01  8.00000000E-01
  3.40613410E+01  5.12357460E+00  1.16466260E+00  3.27230410E-01  1.03072410E-01
  8.00000000E-01
Contraction coefficients                   R   N=         156
  6.06455036E-04  4.69790889E-03  2.43324776E-02  9.73999683E-02  3.01955843E-01
  6.62336091E-01  6.55953085E-01  3.75856333E-01  1.00000000E+00  1.00000000E+00
  1.00000000E+00  1.13272200E-02  7.61696592E-02  3.01922522E-01  7.27850273E-01
  1.00000000E+00  1.00000000E+00  1.00000000E+00  1.00000000E+00  1.00000000E+00
  6.06455036E-04  4.69790889E-03  2.43324776E-02  9.73999683E-02  3.01955843E-01
  6.62336091E-01  6.55953085E-01  3.75856333E-01  1.00000000E+00  1.00000000E+00
  1.00000000E+00  1.13272200E-02  7.61696592E-02  3.01922522E-01  7.27850273E-01
  1.00000000E+00  1.00000000E+00  1.00000000E+00  1.00000000E+00  1.00000000E+00
  6.06455036E-04  4.69790889E-03  2.43324776E-02  9.73999683E-02  3.01955843E-01
  6.62336091E-01  6.55953085E-01  3.75856333E-01  1.00000000E+00  1.00000000E+00
  1.00000000E+00  1.13272200E-02  7.61696592E-02  3.01922522E-01  7.27850273E-01
  1.00000000E+00  1.00000000E+00  1.00000000E+00  1.00000000E+00  1.00000000E+00
  6.06455036E-04  4.69790889E-03  2.43324776E-02  9.73999683E-02  3.01955843E-01
  6.62336091E-01  6.55953085E-01  3.75856333E-01  1.00000000E+00  1.00000000E+00
  1.00000000E+00  1.13272200E-02  7.61696592E-02  3.01922522E-01  7.27850273E-01
  1.00000000E+00  1.00000000E+00  1.00000000E+00  1.00000000E+00  1.00000000E+00
  6.06455036E-04  4.69790889E-03  2.43324776E-02  9.73999683E-02  3.01955843E-01
  6.62336091E-01  6.55953085E-01  3.75856333E-01  1.00000000E+00  1.00000000E+00
  1.00000000E+00  1.13272200E-02  7.61696592E-02  3.01922522E-01  7.27850273E-01
  1.00000000E+00  1.00000000E+00  1.00000000E+00  1.00000000E+00  1.00000000E+00
  6.06455036E-04  4.69790889E-03  2.43324776E-02  9.73999683E-02  3.01955843E-01
  6.62336091E-01  6.55953085E-01  3.75856333E-01  1.00000000E+00  1.00000000E+00
  1.00000000E+00  1.13272200E-02  7.61696592E-02  3.01922522E-01  7.27850273E-01
  1.00000000E+00  1.00000000E+00  1.00000000E+00  1.00000000E+00  1.00000000E+00
  2.54393072E-02  1.90085949E-01  8.52441130E-01  1.00000000E+00  1.00000000E+00
  1.00000000E+00  2.54393072E-02  1.90085949E-01  8.52441130E-01  1.00000000E+00
  1.00000000E+00  1.00000000E+00  2.54393072E-02  1.90085949E-01  8.52441130E-01
  1.00000000E+00  1.00000000E+00  1.00000000E+00  2.54393072E-02  1.90085949E-01
  8.52441130E-01  1.00000000E+00  1.00000000E+00  1.00000000E+00  2.54393072E-02
  1.90085949E-01  8.52441130E-01  1.00000000E+00  1.00000000E+00  1.00000000E+00
  2.54393072E-02  1.90085949E-01  8.52441130E-01  1.00000000E+00  1.00000000E+00
  1.00000000E+00
Coordinates of each shell                  R   N=         270
  2.27649972E+00  1.31433054E+00  0.00000000E+00  2.27649972E+00  1.31433054E+00
  0.00000000E+00  2.27649972E+00  1.31433054E+00  0.00000000E+00  2.27649972E+00
  1.31433054E+00  0.00000000E+00  2.27649972E+00  1.31433054E+00  0.00000000E+00
  2.27649972E+00  1.31433054E+00  0.00000000E+00  2.27649972E+00  1.31433054E+00
  0.00000000E+00  2.27649972E+00  1.31433054E+00  0.00000000E+00  2.27649972E+00
  1.31433054E+00  0.00000000E+00  2.27649972E+00  1.31433054E+00  0.00000000E+00
  2.27649972E+00  1.31433054E+00  0.00000000E+00  0.00000000E+00  2.62865878E+00
  0.00000000E+00  0.00000000E+00  2.62865878E+00  0.00000000E+00  0.00000000E+00
  2.62865878E+00  0.00000000E+00  0.00000000E+00  2.62865878E+00  0.00000000E+00
  0.00000000E+00  2.62865878E+00  0.00000000E+00  0.00000000E+00  2.62865878E+00
  0.00000000E+00  0.00000000E+00  2.62865878E+00  0.00000000E+00  0.00000000E+00
  2.62865878E+00  0.00000000E+00  0.00000000E+00  2.62865878E+00  0.00000000E+00
  0.00000000E+00  2.62865878E+00  0.00000000E+00  0.00000000E+00  2.62865878E+00
  0.00000000E+00 -2.27649972E+00  1.31433054E+00  0.00000000E+00 -2.27649972E+00
  1.31433054E+00  0.00000000E+00 -2.27649972E+00  1.31433054E+00  0.00000000E+00
 -2.27649972E+00  1.31433054E+00  0.00000000E+00 -2.27649972E+00  1.31433054E+00
  0.00000000E+00 -2.27649972E+00  1.31433054E+00  0.00000000E+00 -2.27649972E+00
  1.31433054E+00  0.00000000E+00 -2.27649972E+00  1.31433054E+00  0.00000000E+00
 -2.27649972E+00  1.31433054E+00  0.00000000E+00 -2.27649972E+00  1.31433054E+00
  0.00000000E+00 -2.27649972E+00  1.31433054E+00  0.00000000E+00 -2.27649972E+00
 -1.31433054E+00  0.00000000E+00 -2.27649972E+00 -1.31433054E+00  0.00000000E+00
 -2.27649972E+00 -1.31433054E+00  0.00000000E+00 -2.27649972E+00 -1.31433054E+00
  0.00000000E+00 -2.27649972E+00 -1.31433054E+00  0.00000000E+00 -2.27649972E+00
 -1.31433054E+00  0.00000000E+00 -2.27649972E+00 -1.31433054E+00  0.00000000E+00
 -2.27649972E+00 -1.31433054E+00  0.00000000E+00 -2.27649972E+00 -1.31433054E+00
  0.00000000E+00 -2.27649972E+00 -1.31433054E+00  0.00000000E+00 -2.27649972E+00
 -1.31433054E+00  0.00000000E+00  0.00000000E+00 -2.62865878E+00  0.00000000E+00
  0.00000000E+00 -2.62865878E+00  0.00000000E+00  0.00000000E+00 -2.62865878E+00
  0.00000000E+00  0.00000000E+00 -2.62865878E+00  0.00000000E+00  0.00000000E+00
 -2.62865878E+00  0.00000000E+00  0.00000000E+00 -2.62865878E+00  0.00000000E+00
  0.00000000E+00 -2.62865878E+00  0.00000000E+00  0.00000000E+00 -2.62865878E+00
  0.00000000E+00  0.00000000E+00 -2.62865878E+00  0.00000000E+00  0.00000000E+00
 -2.62865878E+00  0.00000000E+00  0.00000000E+00 -2.62865878E+00  0.00000000E+00
  2.27649972E+00 -1.31433054E+00  0.00000000E+00  2.27649972E+00 -1.31433054E+00
  0.00000000E+00  2.27649972E+00 -1.31433054E+00  0.00000000E+00  2.27649972E+00
 -1.31433054E+00  0.00000000E+00  2.27649972E+00 -1.31433054E+00  0.00000000E+00
  2.27649972E+00 -1.31433054E+00  0.00000000E+00  2.27649972E+00 -1.31433054E+00
  0.00000000E+00  2.27649972E+00 -1.31433054E+00  0.00000000E+00  2.27649972E+00
 -1.31433054E+00  0.00000000E+00  2.27649972E+00 -1.31433054E+00  0.00000000E+00
  2.27649972E+00 -1.31433054E+00  0.00000000E+00  4.04880950E+00  2.33759042E+00
  0.00000000E+00  4.04880950E+00  2.33759042E+00  0.00000000E+00  4.04880950E+00
  2.33759042E+00  0.00000000E+00  4.04880950E+00  2.33759042E+00  0.00000000E+00
  0.00000000E+00  4.67515297E+00  0.00000000E+00  0.00000000E+00  4.67515297E+00
  0.00000000E+00  0.00000000E+00  4.67515297E+00  0.00000000E+00  0.00000000E+00
  4.67515297E+00  0.00000000E+00 -4.04880950E+00  2.33759042E+00  0.00000000E+00
 -4.04880950E+00  2.33759042E+00  0.00000000E+00 -4.04880950E+00  2.33759042E+00
  0.00000000E+00 -4.04880950E+00  2.33759042E+00  0.00000000E+00 -4.04880950E+00
 -2.33759042E+00  0.00000000E+00 -4.04880950E+00 -2.33759042E+00  0.00000000E+00
 -4.04880950E+00 -2.33759042E+00  0.00000000E+00 -4.04880950E+00 -2.33759042E+00
  0.00000000E+00  0.00000000E+00 -4.67515297E+00  0.00000000E+00  0.00000000E+00
 -4.67515297E+00  0.00000000E+00  0.00000000E+00 -4.67515297E+00  0.00000000E+00
  0.00000000E+00 -4.67515297E+00  0.00000000E+00  4.04880950E+00 -2.33759042E+00
  0.00000000E+00  4.04880950E+00 -2.33759042E+00  0.00000000E+00  4.04880950E+00
 -2.33759042E+00  0.00000000E+00  4.04880950E+00 -2.33759042E+00  0.00000000E+00
Num ILSW                                   I              100
ILSW                                       I   N=         100
           0           0           0           0           2           0
           0           0           0           0         402          -1
           5           0           0           0           0           0
           0           0           0           0           0           0
           1           1           0           0           0           0
           0           0      100000           0          -1           0
           0           0           0           0           0           0
           0           0           0           1           0           0
           0 -2000000000           1           0           0           0
           0           0           4          52           0           0
           0           0           5           0           0           0
           0           0           0          12           0           1
           0           0           0           0           0           0
           0           0           0           0           0           0
           0           0           0           0           0           0
           0           0           0           0           0           0
           0           0           0           0
Num RLSW                                   I               52
RLSW                                       R   N=          52
  8.00000000E-01  7.20000000E-01  1.00000000E+00  8.10000000E-01  2.00000000E-01
  0.00000000E+00  0.00000000E+00  1.00000000E+00  0.00000000E+00  0.00000000E+00
  0.00000000E+00  0.00000000E+00  1.00000000E+00  0.00000000E+00  0.00000000E+00
  0.00000000E+00  0.00000000E+00  1.00000000E+00  0.00000000E+00  0.00000000E+00
  0.00000000E+00  0.00000000E+00  1.00000000E+00  0.00000000E+00  0.00000000E+00
  0.00000000E+00  0.00000000E+00  1.00000000E+00  0.00000000E+00  0.00000000E+00
  0.00000000E+00  0.00000000E+00  1.00000000E+00  0.00000000E+00  0.00000000E+00
  0.00000000E+00  0.00000000E+00  0.00000000E+00  1.00000000E+00  1.00000000E+00
  0.00000000E+00  1.00000000E+00  0.00000000E+00  0.00000000E+00  0.00000000E+00
  0.00000000E+00  0.00000000E+00  0.00000000E+00  0.00000000E+00  0.00000000E+00
  0.00000000E+00  0.00000000E+00
ECP-MxAtEC                                 I           250000
ECP-MaxLECP                                I               10
ECP-MaxAtL                                 I          2250000
ECP-MxTECP                                 I         11250000
ECP-LenNCZ                                 I                0
ECP-KFirst                                 I   N=         120
           0           0           0           0           0           0
           0           0           0           0           0           0
           0           0           0           0           0           0
           0           0           0           0           0           0
           0           0           0           0           0           0
           0           0           0           0           0           0
           0           0           0           0           0           0
           0           0           0           0           0           0
           0           0           0           0           0           0
           0           0           0           0           0           0
           0           0           0           0           0           0
           0           0           0           0           0           0
           0           0           0           0           0           0
           0           0           0           0           0           0
           0           0           0           0           0           0
           0           0           0           0           0           0
           0           0           0           0           0           0
           0           0           0           0           0           0
           0           0           0           0           0           0
           0           0           0           0           0           0
ECP-KLast                                  I   N=         120
           0           0           0           0           0           0
           0           0           0           0           0           0
           0           0           0           0           0           0
           0           0           0           0           0           0
           0           0           0           0           0           0
           0           0           0           0           0           0
           0           0           0           0           0           0
           0           0           0           0           0           0
           0           0           0           0           0           0
           0           0           0           0           0           0
           0           0           0           0           0           0
           0           0           0           0           0           0
           0           0           0           0           0           0
           0           0           0           0           0           0
           0           0           0           0           0           0
           0           0           0           0           0           0
           0           0           0           0           0           0
           0           0           0           0           0           0
           0           0           0           0           0           0
           0           0           0           0           0           0
ECP-LMax                                   I   N=          12
           0           0           0           0           0           0
           0           0           0           0           0           0
ECP-LPSkip                                 I   N=          12
           1           1           1           1           1           1
           1           1           1           1           1           1
ECP-RNFroz                                 R   N=          12
  0.00000000E+00  0.00000000E+00  0.00000000E+00  0.00000000E+00  0.00000000E+00
  0.00000000E+00  0.00000000E+00  0.00000000E+00  0.00000000E+00  0.00000000E+00
  0.00000000E+00  0.00000000E+00
ECP-NLP                                    I                0
ECP-CLP1                                   R      0.000000000000000E+00
ECP-CLP2                                   R      0.000000000000000E+00
ECP-ZLP                                    R      0.000000000000000E+00
MxBond                                     I                3
NBond                                      I   N=          12
           3           3           3           3           3           3
           1           1           1           1           1           1
IBond                                      I   N=          36
           2           6           7           1           3           8
           2           4           9           3           5          10
           4           6          11           1           5          12
           1           0           0           2           0           0
           3           0           0           4           0           0
           5           0           0           6           0           0
RBond                                      R   N=          36
  1.50000000E+00  1.50000000E+00  1.00000000E+00  1.50000000E+00  1.50000000E+00
  1.00000000E+00  1.50000000E+00  1.50000000E+00  1.00000000E+00  1.50000000E+00
  1.50000000E+00  1.00000000E+00  1.50000000E+00  1.50000000E+00  1.00000000E+00
  1.50000000E+00  1.50000000E+00  1.00000000E+00  1.00000000E+00  0.00000000E+00
  0.00000000E+00  1.00000000E+00  0.00000000E+00  0.00000000E+00  1.00000000E+00
  0.00000000E+00  0.00000000E+00  1.00000000E+00  0.00000000E+00  0.00000000E+00
  1.00000000E+00  0.00000000E+00  0.00000000E+00  1.00000000E+00  0.00000000E+00
  0.00000000E+00
Virial Ratio                               R      2.005326499266648E+00
SCF Energy                                 R     -2.323373551324349E+02
Total Energy                               R     -2.323373551324349E+02
RMS Density                                R      3.944245714128782E-09
Job Status                                 I                1
Nuclear derivative order                   I                0
External E-field                           R   N=          35
  0.00000000E+00  0.00000000E+00  0.00000000E+00  0.00000000E+00  0.00000000E+00
  0.00000000E+00  0.00000000E+00  0.00000000E+00  0.00000000E+00  0.00000000E+00
  0.00000000E+00  0.00000000E+00  0.00000000E+00  0.00000000E+00  0.00000000E+00
  0.00000000E+00  0.00000000E+00  0.00000000E+00  0.00000000E+00  0.00000000E+00
  0.00000000E+00  0.00000000E+00  0.00000000E+00  0.00000000E+00  0.00000000E+00
  0.00000000E+00  0.00000000E+00  0.00000000E+00  0.00000000E+00  0.00000000E+00
  0.00000000E+00  0.00000000E+00  0.00000000E+00  0.00000000E+00  0.00000000E+00
IOpCl                                      I                0
IROHF                                      I                0
Alpha Orbital Energies                     R   N=         222
 -1.01769515E+01 -1.01767137E+01 -1.01767137E+01 -1.01761303E+01 -1.01761303E+01
 -1.01758516E+01 -8.58334369E-01 -7.49527372E-01 -7.49525390E-01 -6.06347293E-01
 -6.06347269E-01 -5.28604994E-01 -4.64322080E-01 -4.51609472E-01 -4.25984799E-01
 -4.25981987E-01 -3.73244665E-01 -3.48672689E-01 -3.48672308E-01 -2.59337640E-01
 -2.59335992E-01 -1.43798341E-02 -1.43789867E-02  4.46775935E-02  7.65139298E-02
  7.65140011E-02  1.03537484E-01  1.03537738E-01  1.26292443E-01  1.40071718E-01
  1.48823120E-01  2.05341185E-01  2.08689718E-01  2.14506394E-01  2.14507612E-01
  2.31985654E-01  2.31985832E-01  2.46939379E-01  2.46940485E-01  2.68083287E-01
  2.68085322E-01  3.25965182E-01  3.26207212E-01  3.26209742E-01  3.55845744E-01
  3.55848367E-01  3.81270873E-01  4.02884933E-01  4.11632434E-01  4.11633326E-01
  4.35564223E-01  4.35564465E-01  4.37374028E-01  4.61507207E-01  4.62122134E-01
  4.88385440E-01  4.88391737E-01  4.90295914E-01  5.05679620E-01  5.05680890E-01
  6.42672218E-01  6.42676015E-01  6.50900633E-01  6.78420037E-01  6.85041481E-01
  7.45108507E-01  7.45110432E-01  7.53554473E-01  7.53563610E-01  7.98827169E-01
  8.43277402E-01  8.43277890E-01  8.50129829E-01  8.86803931E-01  8.89548955E-01
  9.99046372E-01  9.99048116E-01  1.00854118E+00  1.00854594E+00  1.04941770E+00
  1.04941962E+00  1.16526009E+00  1.17318477E+00  1.17318625E+00  1.20186863E+00
  1.20187372E+00  1.22033201E+00  1.22033307E+00  1.24808413E+00  1.24808617E+00
  1.28175919E+00  1.37401377E+00  1.37432492E+00  1.38379343E+00  1.44890993E+00
  1.44891166E+00  1.47704957E+00  1.47705014E+00  1.48048462E+00  1.48048510E+00
  1.59475169E+00  1.60683170E+00  1.64825544E+00  1.66229846E+00  1.66229950E+00
  1.67714490E+00  1.68820661E+00  1.68820716E+00  1.70080443E+00  1.70081123E+00