 Entering Gaussian System, Link 0=g16
 Initial command:
 /sw/cluster/pub/apps//g16/l1.exe "/data/mmaximo/27738/Gau-1915088.inp" -scrdir="/data/mmaximo/27738/"
 Entering Link 1 = /sw/cluster/pub/apps//g16/l1.exe PID=   1915089.
  
 Copyright (c) 1988,1990,1992,1993,1995,1998,2003,2009,2016,
            Gaussian, Inc.  All Rights Reserved.
  
 This is part of the Gaussian(R) 16 program.  It is based on
 the Gaussian(R) 09 system (copyright 2009, Gaussian, Inc.),
 the Gaussian(R) 03 system (copyright 2003, Gaussian, Inc.),
 the Gaussian(R) 98 system (copyright 1998, Gaussian, Inc.),
 the Gaussian(R) 94 system (copyright 1995, Gaussian, Inc.),
 the Gaussian 92(TM) system (copyright 1992, Gaussian, Inc.),
 the Gaussian 90(TM) system (copyright 1990, Gaussian, Inc.),
 the Gaussian 88(TM) system (copyright 1988, Gaussian, Inc.),
 the Gaussian 86(TM) system (copyright 1986, Carnegie Mellon
 University), and the Gaussian 82(TM) system (copyright 1983,
 Carnegie Mellon University). Gaussian is a federally registered
 trademark of Gaussian, Inc.
  
 This software contains proprietary and confidential information,
 including trade secrets, belonging to Gaussian, Inc.
  
 This software is provided under written license and may be
 used, copied, transmitted, or stored only in accord with that
 written license.
  
 The following legend is applicable only to US Government
 contracts under FAR:
  
                    RESTRICTED RIGHTS LEGEND
  
 Use, reproduction and disclosure by the US Government is
 subject to restrictions as set forth in subparagraphs (a)
 and (c) of the Commercial Computer Software - Restricted
 Rights clause in FAR 52.227-19.
  
 Gaussian, Inc.
 340 Quinnipiac St., Bldg. 40, Wallingford CT 06492
  
  
 ---------------------------------------------------------------
 Warning -- This program may not be used in any manner that
 competes with the business of Gaussian, Inc. or will provide
 assistance to any competitor of Gaussian, Inc.  The licensee
 of this program is prohibited from giving any competitor of
 Gaussian, Inc. access to this program.  By using this program,
 the user acknowledges that Gaussian, Inc. is engaged in the
 business of creating and licensing software in the field of
 computational chemistry and represents and warrants to the
 licensee that it is not a competitor of Gaussian, Inc. and that
 it will not use this program in any manner prohibited above.
 ---------------------------------------------------------------
  

 Cite this work as:
 Gaussian 16, Revision A.03,
 M. J. Frisch, G. W. Trucks, H. B. Schlegel, G. E. Scuseria, 
 M. A. Robb, J. R. Cheeseman, G. Scalmani, V. Barone, 
 G. A. Petersson, H. Nakatsuji, X. Li, M. Caricato, A. V. Marenich, 
 J. Bloino, B. G. Janesko, R. Gomperts, B. Mennucci, H. P. Hratchian, 
 J. V. Ortiz, A. F. Izmaylov, J. L. Sonnenberg, D. Williams-Young, 
 F. Ding, F. Lipparini, F. Egidi, J. Goings, B. Peng, A. Petrone, 
 T. Henderson, D. Ranasinghe, V. G. Zakrzewski, J. Gao, N. Rega, 
 G. Zheng, W. Liang, M. Hada, M. Ehara, K. Toyota, R. Fukuda, 
 J. Hasegawa, M. Ishida, T. Nakajima, Y. Honda, O. Kitao, H. Nakai, 
 T. Vreven, K. Throssell, J. A. Montgomery, Jr., J. E. Peralta, 
 F. Ogliaro, M. J. Bearpark, J. J. Heyd, E. N. Brothers, K. N. Kudin, 
 V. N. Staroverov, T. A. Keith, R. Kobayashi, J. Normand, 
 K. Raghavachari, A. P. Rendell, J. C. Burant, S. S. Iyengar, 
 J. Tomasi, M. Cossi, J. M. Millam, M. Klene, C. Adamo, R. Cammi, 
 J. W. Ochterski, R. L. Martin, K. Morokuma, O. Farkas, 
 J. B. Foresman, and D. J. Fox, Gaussian, Inc., Wallingford CT, 2016.
 
 ******************************************
 Gaussian 16:  ES64L-G16RevA.03 25-Dec-2016
                14-Jan-2025 
 ******************************************
 %chk=C6H4-NH2-2.chk
 ----------------------------------------
 #P B3LYP/def2tzvp nosymm Density=Current
 ----------------------------------------
 1/30=1,38=1,172=1/1;
 2/12=2,15=1,17=6,18=5,40=1/2;
 3/5=44,7=101,11=2,25=1,30=1,74=-5/1,2,3;
 4//1;
 5/5=2,38=5/2;
 6/7=2,8=2,9=2,10=2,22=-1,28=1/1;
 99/5=1,9=1/99;
 Leave Link    1 at Tue Jan 14 13:35:28 2025, MaxMem=           0 cpu:               0.0 elap:               0.0
 (Enter /sw/cluster/pub/apps//g16/l101.exe)
 ------------
 Single-Point
 ------------
 Symbolic Z-matrix:
 Charge =  0 Multiplicity = 1
 C                     1.41618   0.        0.00069 
 C                     0.69392   1.19498  -0.00069 
 C                    -0.69392   1.19498   0.00069 
 C                    -1.41618   0.       -0.00069 
 C                    -0.69392  -1.19498   0.00069 
 C                     0.69392  -1.19498  -0.00069 
 H                     3.25186   0.82986   0.31055 
 H                     3.25186  -0.82986   0.31055 
 H                     1.22419   2.14079  -0.00752 
 H                    -1.22419   2.14079   0.00752 
 N                    -2.82023   0.        0.06772 
 H                    -1.22419  -2.14079   0.00752 
 H                     1.22419  -2.14079  -0.00752 
 N                     2.82023   0.       -0.06772 
 H                    -3.25186   0.82986  -0.31055 
 H                    -3.25186  -0.82986  -0.31055 
 
 ITRead=  0  0  0  0  0  0  0  0  0  0  0  0  0  0  0  0
 MicOpt= -1 -1 -1 -1 -1 -1 -1 -1 -1 -1 -1 -1 -1 -1 -1 -1
 NAtoms=     16 NQM=       16 NQMF=       0 NMMI=      0 NMMIF=      0
                NMic=       0 NMicF=      0.
                    Isotopes and Nuclear Properties:
 (Nuclear quadrupole moments (NQMom) in fm**2, nuclear magnetic moments (NMagM)
  in nuclear magnetons)

  Atom         1           2           3           4           5           6           7           8           9          10
 IAtWgt=          12          12          12          12          12          12           1           1           1           1
 AtmWgt=  12.0000000  12.0000000  12.0000000  12.0000000  12.0000000  12.0000000   1.0078250   1.0078250   1.0078250   1.0078250
 NucSpn=           0           0           0           0           0           0           1           1           1           1
 AtZEff=  -0.0000000  -0.0000000  -0.0000000  -0.0000000  -0.0000000  -0.0000000  -0.0000000  -0.0000000  -0.0000000  -0.0000000
 NQMom=    0.0000000   0.0000000   0.0000000   0.0000000   0.0000000   0.0000000   0.0000000   0.0000000   0.0000000   0.0000000
 NMagM=    0.0000000   0.0000000   0.0000000   0.0000000   0.0000000   0.0000000   2.7928460   2.7928460   2.7928460   2.7928460
 AtZNuc=   6.0000000   6.0000000   6.0000000   6.0000000   6.0000000   6.0000000   1.0000000   1.0000000   1.0000000   1.0000000

  Atom        11          12          13          14          15          16
 IAtWgt=          14           1           1          14           1           1
 AtmWgt=  14.0030740   1.0078250   1.0078250  14.0030740   1.0078250   1.0078250
 NucSpn=           2           1           1           2           1           1
 AtZEff=  -0.0000000  -0.0000000  -0.0000000  -0.0000000  -0.0000000  -0.0000000
 NQMom=    2.0440000   0.0000000   0.0000000   2.0440000   0.0000000   0.0000000
 NMagM=    0.4037610   2.7928460   2.7928460   0.4037610   2.7928460   2.7928460
 AtZNuc=   7.0000000   1.0000000   1.0000000   7.0000000   1.0000000   1.0000000
 Leave Link  101 at Tue Jan 14 13:35:28 2025, MaxMem=   104857600 cpu:               0.0 elap:               0.0
 (Enter /sw/cluster/pub/apps//g16/l202.exe)
                          Input orientation:                          
 ---------------------------------------------------------------------
 Center     Atomic      Atomic             Coordinates (Angstroms)
 Number     Number       Type             X           Y           Z
 ---------------------------------------------------------------------
      1          6           0        1.416184    0.000000    0.000690
      2          6           0        0.693919    1.194979   -0.000690
      3          6           0       -0.693919    1.194979    0.000690
      4          6           0       -1.416184    0.000000   -0.000690
      5          6           0       -0.693919   -1.194979    0.000690
      6          6           0        0.693919   -1.194979   -0.000690
      7          1           0        3.251860    0.829864    0.310546
      8          1           0        3.251860   -0.829864    0.310546
      9          1           0        1.224191    2.140787   -0.007521
     10          1           0       -1.224191    2.140787    0.007521
     11          7           0       -2.820225    0.000000    0.067720
     12          1           0       -1.224191   -2.140787    0.007521
     13          1           0        1.224191   -2.140787   -0.007521
     14          7           0        2.820225    0.000000   -0.067720
     15          1           0       -3.251860    0.829864   -0.310546
     16          1           0       -3.251860   -0.829864   -0.310546
 ---------------------------------------------------------------------
                    Distance matrix (angstroms):
                    1          2          3          4          5
     1  C    0.000000
     2  C    1.396296   0.000000
     3  C    2.424976   1.387838   0.000000
     4  C    2.832367   2.424976   1.396296   0.000000
     5  C    2.424976   2.763692   2.389958   1.396296   0.000000
     6  C    1.396296   2.389958   2.763692   2.424976   1.387838
     7  H    2.038233   2.602545   3.974731   4.751439   4.445804
     8  H    2.038233   3.277182   4.445804   4.751439   3.974731
     9  H    2.149395   1.084337   2.138636   3.399205   3.847927
    10  H    3.399205   2.138636   1.084337   2.149395   3.377657
    11  N    4.236939   3.712393   2.440010   1.405707   2.440010
    12  H    3.399205   3.847927   3.377657   2.149395   1.084337
    13  H    2.149395   3.377657   3.847927   3.399205   2.138636
    14  N    1.405707   2.440010   3.712393   4.236939   3.712393
    15  H    4.751439   3.974731   2.602545   2.038233   3.277182
    16  H    4.751439   4.445804   3.277182   2.038233   2.602545
                    6          7          8          9         10
     6  C    0.000000
     7  H    3.277182   0.000000
     8  H    2.602545   1.659729   0.000000
     9  H    3.377657   2.435390   3.610731   0.000000
    10  H    3.847927   4.673903   5.380671   2.448428   0.000000
    11  N    3.712393   6.133340   6.133340   4.576673   2.670940
    12  H    2.138636   5.380671   4.673903   4.932208   4.281574
    13  H    1.084337   3.610731   2.435390   4.281574   4.932208
    14  N    2.440010   1.008994   1.008994   2.670940   4.576673
    15  H    4.445804   6.533309   6.740833   4.673903   2.435390
    16  H    3.974731   6.740833   6.533309   5.380671   3.610731
                   11         12         13         14         15
    11  N    0.000000
    12  H    2.670940   0.000000
    13  H    4.576673   2.448428   0.000000
    14  N    5.642077   4.576673   2.670940   0.000000
    15  H    1.008994   3.610731   5.380671   6.133340   0.000000
    16  H    1.008994   2.435390   4.673903   6.133340   1.659729
                   16
    16  H    0.000000
 Symmetry turned off by external request.
 Stoichiometry    C6H8N2
 Framework group  C2H[SGH(C2N2),X(C4H8)]
 Deg. of freedom    12
 Full point group                 C2H     NOp   4
 Rotational constants (GHZ):           5.5962461           1.4726056           1.1685905
 Leave Link  202 at Tue Jan 14 13:35:28 2025, MaxMem=   104857600 cpu:               0.0 elap:               0.0
 (Enter /sw/cluster/pub/apps//g16/l301.exe)
 Standard basis: def2TZVP (5D, 7F)
 Ernie: Thresh=  0.10000D-02 Tol=  0.10000D-05 Strict=F.
   296 basis functions,   472 primitive gaussians,   336 cartesian basis functions
    29 alpha electrons       29 beta electrons
       nuclear repulsion energy       345.1019212238 Hartrees.
 IExCor=  402 DFT=T Ex+Corr=B3LYP ExCW=0 ScaHFX=  0.200000
 ScaDFX=  0.800000  0.720000  1.000000  0.810000 ScalE2=  1.000000  1.000000
 IRadAn=      5 IRanWt=     -1 IRanGd=            0 ICorTp=0 IEmpDi=  4
 NAtoms=   16 NActive=   16 NUniq=   16 SFac= 1.00D+00 NAtFMM=   60 NAOKFM=F Big=F
 Integral buffers will be    131072 words long.
 Raffenetti 2 integral format.
 Two-electron integral symmetry is turned off.
 Leave Link  301 at Tue Jan 14 13:35:28 2025, MaxMem=   104857600 cpu:               0.0 elap:               0.0
 (Enter /sw/cluster/pub/apps//g16/l302.exe)
 NPDir=0 NMtPBC=     1 NCelOv=     1 NCel=       1 NClECP=     1 NCelD=      1
         NCelK=      1 NCelE2=     1 NClLst=     1 CellRange=     0.0.
 One-electron integrals computed using PRISM.
   1 Symmetry operations used in ECPInt.
 ECPInt:  NShTT=    7260 NPrTT=   21936 LenC2=    7075 LenP2D=   17241.
 LDataN:  DoStor=T MaxTD1= 6 Len=  172
 NBasis=   296 RedAO= T EigKep=  8.96D-06  NBF=   296
 NBsUse=   296 1.00D-06 EigRej= -1.00D+00 NBFU=   296
 Precomputing XC quadrature grid using
 IXCGrd= 4 IRadAn=           5 IRanWt=          -1 IRanGd=           0 AccXCQ= 0.00D+00.
 Generated NRdTot=       0 NPtTot=           0 NUsed=           0 NTot=          32
 NSgBfM=   334   334   334   334   334 MxSgAt=    16 MxSgA2=    16.
 Leave Link  302 at Tue Jan 14 13:35:28 2025, MaxMem=   104857600 cpu:               0.2 elap:               0.2
 (Enter /sw/cluster/pub/apps//g16/l303.exe)
 DipDrv:  MaxL=1.
 Leave Link  303 at Tue Jan 14 13:35:28 2025, MaxMem=   104857600 cpu:               0.0 elap:               0.0
 (Enter /sw/cluster/pub/apps//g16/l401.exe)
 ExpMin= 9.52D-02 ExpMax= 1.97D+04 ExpMxC= 6.73D+02 IAcc=3 IRadAn=         5 AccDes= 0.00D+00
 Harris functional with IExCor=  402 and IRadAn=       5 diagonalized for initial guess.
 HarFok:  IExCor=  402 AccDes= 0.00D+00 IRadAn=         5 IDoV= 1 UseB2=F ITyADJ=14
 ICtDFT=  3500011 ScaDFX=  1.000000  1.000000  1.000000  1.000000
 FoFCou: FMM=F IPFlag=           0 FMFlag=      100000 FMFlg1=           0
         NFxFlg=           0 DoJE=T BraDBF=F KetDBF=T FulRan=T
         wScrn=  0.000000 ICntrl=       500 IOpCl=  0 I1Cent=   200000004 NGrid=           0
         NMat0=    1 NMatS0=      1 NMatT0=    0 NMatD0=    1 NMtDS0=    0 NMtDT0=    0
 Symmetry not used in FoFCou.
 Harris En= -343.141060200172    
 JPrj=0 DoOrth=F DoCkMO=F.
 Leave Link  401 at Tue Jan 14 13:35:31 2025, MaxMem=   104857600 cpu:               2.6 elap:               2.6
 (Enter /sw/cluster/pub/apps//g16/l502.exe)
 Two-electron integral symmetry not used.
 Closed shell SCF:
 Using DIIS extrapolation, IDIIS=  1040.
 NGot=   104857600 LenX=   104627476 LenY=   104514139
 Requested convergence on RMS density matrix=1.00D-08 within 128 cycles.
 Requested convergence on MAX density matrix=1.00D-06.
 Requested convergence on             energy=1.00D-06.
 No special actions if energy rises.
 Fock matrices will be formed incrementally for  20 cycles.
 Integral accuracy reduced to 1.0D-05 until final iterations.

 Cycle   1  Pass 0  IDiag  1:
 FoFJK:  IHMeth= 1 ICntrl=       0 DoSepK=F KAlg= 0 I1Cent=           0 FoldK=F
 IRaf= 950000000 NMat=       1 IRICut=       1 DoRegI=T DoRafI=F ISym2E= 0 IDoP0=0 IntGTp=1.
 FoFCou: FMM=F IPFlag=           0 FMFlag=      100000 FMFlg1=           0
         NFxFlg=           0 DoJE=F BraDBF=F KetDBF=F FulRan=T
         wScrn=  0.000000 ICntrl=         0 IOpCl=  0 I1Cent=           0 NGrid=           0
         NMat0=    1 NMatS0=      1 NMatT0=    0 NMatD0=    1 NMtDS0=    0 NMtDT0=    0
 Symmetry not used in FoFCou.
 E= -342.835280424381    
 DIIS: error= 3.41D-02 at cycle   1 NSaved=   1.
 NSaved= 1 IEnMin= 1 EnMin= -342.835280424381     IErMin= 1 ErrMin= 3.41D-02
 ErrMax= 3.41D-02  0.00D+00 EMaxC= 1.00D-01 BMatC= 2.84D-01 BMatP= 2.84D-01
 IDIUse=3 WtCom= 6.59D-01 WtEn= 3.41D-01
 Coeff-Com:  0.100D+01
 Coeff-En:   0.100D+01
 Coeff:      0.100D+01
 Gap=     0.188 Goal=   None    Shift=    0.000
 GapD=    0.188 DampG=1.000 DampE=0.500 DampFc=0.5000 IDamp=-1.
 Damping current iteration by 5.00D-01
 RMSDP=4.49D-03 MaxDP=1.16D-01              OVMax= 1.96D-01

 Cycle   2  Pass 0  IDiag  1:
 RMSU=  2.24D-03    CP:  9.88D-01
 E= -342.945739740507     Delta-E=       -0.110459316126 Rises=F Damp=T
 DIIS: error= 7.60D-03 at cycle   2 NSaved=   2.
 NSaved= 2 IEnMin= 2 EnMin= -342.945739740507     IErMin= 2 ErrMin= 7.60D-03
 ErrMax= 7.60D-03  0.00D+00 EMaxC= 1.00D-01 BMatC= 1.25D-02 BMatP= 2.84D-01
 IDIUse=3 WtCom= 9.24D-01 WtEn= 7.60D-02
 Coeff-Com:  0.618D-01 0.938D+00
 Coeff-En:   0.154D+00 0.846D+00
 Coeff:      0.688D-01 0.931D+00
 Gap=     0.216 Goal=   None    Shift=    0.000
 RMSDP=1.32D-03 MaxDP=4.72D-02 DE=-1.10D-01 OVMax= 1.12D-01

 Cycle   3  Pass 0  IDiag  1:
 RMSU=  9.81D-04    CP:  9.73D-01  6.09D-01
 E= -343.093402682052     Delta-E=       -0.147662941545 Rises=F Damp=F
 DIIS: error= 4.38D-03 at cycle   3 NSaved=   3.
 NSaved= 3 IEnMin= 3 EnMin= -343.093402682052     IErMin= 3 ErrMin= 4.38D-03
 ErrMax= 4.38D-03  0.00D+00 EMaxC= 1.00D-01 BMatC= 2.03D-03 BMatP= 1.25D-02
 IDIUse=3 WtCom= 9.56D-01 WtEn= 4.38D-02
 Coeff-Com: -0.325D-01 0.222D+00 0.810D+00
 Coeff-En:   0.000D+00 0.000D+00 0.100D+01
 Coeff:     -0.310D-01 0.213D+00 0.818D+00
 Gap=     0.172 Goal=   None    Shift=    0.000
 RMSDP=2.12D-04 MaxDP=4.28D-03 DE=-1.48D-01 OVMax= 9.18D-03

 Cycle   4  Pass 0  IDiag  1:
 RMSU=  1.56D-04    CP:  9.74D-01  6.67D-01  9.36D-01
 E= -343.095049111755     Delta-E=       -0.001646429702 Rises=F Damp=F
 DIIS: error= 1.58D-03 at cycle   4 NSaved=   4.
 NSaved= 4 IEnMin= 4 EnMin= -343.095049111755     IErMin= 4 ErrMin= 1.58D-03
 ErrMax= 1.58D-03  0.00D+00 EMaxC= 1.00D-01 BMatC= 2.88D-04 BMatP= 2.03D-03
 IDIUse=3 WtCom= 9.84D-01 WtEn= 1.58D-02
 Coeff-Com: -0.159D-01 0.616D-01 0.350D+00 0.604D+00
 Coeff-En:   0.000D+00 0.000D+00 0.000D+00 0.100D+01
 Coeff:     -0.157D-01 0.606D-01 0.344D+00 0.611D+00
 Gap=     0.175 Goal=   None    Shift=    0.000
 RMSDP=6.70D-05 MaxDP=1.59D-03 DE=-1.65D-03 OVMax= 6.34D-03

 Cycle   5  Pass 0  IDiag  1:
 RMSU=  4.45D-05    CP:  9.73D-01  6.60D-01  9.52D-01  7.08D-01
 E= -343.095260623846     Delta-E=       -0.000211512092 Rises=F Damp=F
 DIIS: error= 5.18D-04 at cycle   5 NSaved=   5.
 NSaved= 5 IEnMin= 5 EnMin= -343.095260623846     IErMin= 5 ErrMin= 5.18D-04
 ErrMax= 5.18D-04  0.00D+00 EMaxC= 1.00D-01 BMatC= 6.41D-05 BMatP= 2.88D-04
 IDIUse=3 WtCom= 9.95D-01 WtEn= 5.18D-03
 Coeff-Com: -0.581D-02 0.114D-01 0.113D+00 0.355D+00 0.526D+00
 Coeff-En:   0.000D+00 0.000D+00 0.000D+00 0.163D+00 0.837D+00
 Coeff:     -0.578D-02 0.113D-01 0.113D+00 0.354D+00 0.527D+00
 Gap=     0.174 Goal=   None    Shift=    0.000
 RMSDP=2.16D-05 MaxDP=6.46D-04 DE=-2.12D-04 OVMax= 2.08D-03

 Cycle   6  Pass 0  IDiag  1:
 RMSU=  1.15D-05    CP:  9.73D-01  6.60D-01  9.57D-01  7.69D-01  6.68D-01
 E= -343.095318219222     Delta-E=       -0.000057595376 Rises=F Damp=F
 DIIS: error= 7.19D-05 at cycle   6 NSaved=   6.
 NSaved= 6 IEnMin= 6 EnMin= -343.095318219222     IErMin= 6 ErrMin= 7.19D-05
 ErrMax= 7.19D-05  0.00D+00 EMaxC= 1.00D-01 BMatC= 8.90D-07 BMatP= 6.41D-05
 IDIUse=1 WtCom= 1.00D+00 WtEn= 0.00D+00
 Coeff-Com: -0.154D-02 0.183D-02 0.322D-01 0.118D+00 0.205D+00 0.645D+00
 Coeff:     -0.154D-02 0.183D-02 0.322D-01 0.118D+00 0.205D+00 0.645D+00
 Gap=     0.174 Goal=   None    Shift=    0.000
 RMSDP=5.79D-06 MaxDP=1.23D-04 DE=-5.76D-05 OVMax= 2.77D-04

 Initial convergence to 1.0D-05 achieved.  Increase integral accuracy.
 Cycle   7  Pass 1  IDiag  1:
 E= -343.095320572574     Delta-E=       -0.000002353352 Rises=F Damp=F
 DIIS: error= 1.69D-04 at cycle   1 NSaved=   1.
 NSaved= 1 IEnMin= 1 EnMin= -343.095320572574     IErMin= 1 ErrMin= 1.69D-04
 ErrMax= 1.69D-04  0.00D+00 EMaxC= 1.00D-01 BMatC= 1.42D-06 BMatP= 1.42D-06
 IDIUse=3 WtCom= 9.98D-01 WtEn= 1.69D-03
 Coeff-Com:  0.100D+01
 Coeff-En:   0.100D+01
 Coeff:      0.100D+01
 Gap=     0.174 Goal=   None    Shift=    0.000
 RMSDP=5.79D-06 MaxDP=1.23D-04 DE=-2.35D-06 OVMax= 2.38D-04

 Cycle   8  Pass 1  IDiag  1:
 RMSU=  8.94D-05    CP:  9.98D-01
 E= -343.095320745340     Delta-E=       -0.000000172766 Rises=F Damp=F
 DIIS: error= 4.15D-05 at cycle   2 NSaved=   2.
 NSaved= 2 IEnMin= 2 EnMin= -343.095320745340     IErMin= 2 ErrMin= 4.15D-05
 ErrMax= 4.15D-05  0.00D+00 EMaxC= 1.00D-01 BMatC= 4.70D-07 BMatP= 1.42D-06
 IDIUse=1 WtCom= 1.00D+00 WtEn= 0.00D+00
 Coeff-Com:  0.309D+00 0.691D+00
 Coeff:      0.309D+00 0.691D+00
 Gap=     0.174 Goal=   None    Shift=    0.000
 RMSDP=3.14D-06 MaxDP=8.19D-05 DE=-1.73D-07 OVMax= 2.90D-04

 Cycle   9  Pass 1  IDiag  1:
 RMSU=  3.13D-06    CP:  9.98D-01  9.97D-01
 E= -343.095320913859     Delta-E=       -0.000000168519 Rises=F Damp=F
 DIIS: error= 3.18D-05 at cycle   3 NSaved=   3.
 NSaved= 3 IEnMin= 3 EnMin= -343.095320913859     IErMin= 3 ErrMin= 3.18D-05
 ErrMax= 3.18D-05  0.00D+00 EMaxC= 1.00D-01 BMatC= 2.88D-07 BMatP= 4.70D-07
 IDIUse=1 WtCom= 1.00D+00 WtEn= 0.00D+00
 Coeff-Com: -0.356D-03 0.439D+00 0.562D+00
 Coeff:     -0.356D-03 0.439D+00 0.562D+00
 Gap=     0.174 Goal=   None    Shift=    0.000
 RMSDP=1.56D-06 MaxDP=4.12D-05 DE=-1.69D-07 OVMax= 1.36D-04

 Cycle  10  Pass 1  IDiag  1:
 RMSU=  4.02D-07    CP:  9.98D-01  1.01D+00  5.88D-01
 E= -343.095321160298     Delta-E=       -0.000000246439 Rises=F Damp=F
 DIIS: error= 3.69D-06 at cycle   4 NSaved=   4.
 NSaved= 4 IEnMin= 4 EnMin= -343.095321160298     IErMin= 4 ErrMin= 3.69D-06
 ErrMax= 3.69D-06  0.00D+00 EMaxC= 1.00D-01 BMatC= 2.60D-09 BMatP= 2.88D-07
 IDIUse=1 WtCom= 1.00D+00 WtEn= 0.00D+00
 Coeff-Com: -0.195D-02 0.254D+00 0.329D+00 0.419D+00
 Coeff:     -0.195D-02 0.254D+00 0.329D+00 0.419D+00
 Gap=     0.174 Goal=   None    Shift=    0.000
 RMSDP=1.73D-07 MaxDP=3.80D-06 DE=-2.46D-07 OVMax= 1.19D-05

 Cycle  11  Pass 1  IDiag  1:
 RMSU=  1.38D-07    CP:  9.98D-01  1.01D+00  5.77D-01  8.37D-01
 E= -343.095321162689     Delta-E=       -0.000000002390 Rises=F Damp=F
 DIIS: error= 2.72D-07 at cycle   5 NSaved=   5.
 NSaved= 5 IEnMin= 5 EnMin= -343.095321162689     IErMin= 5 ErrMin= 2.72D-07
 ErrMax= 2.72D-07  0.00D+00 EMaxC= 1.00D-01 BMatC= 1.30D-11 BMatP= 2.60D-09
 IDIUse=1 WtCom= 1.00D+00 WtEn= 0.00D+00
 Coeff-Com: -0.748D-03 0.906D-01 0.117D+00 0.162D+00 0.631D+00
 Coeff:     -0.748D-03 0.906D-01 0.117D+00 0.162D+00 0.631D+00
 Gap=     0.174 Goal=   None    Shift=    0.000
 RMSDP=1.95D-08 MaxDP=3.35D-07 DE=-2.39D-09 OVMax= 1.15D-06

 Cycle  12  Pass 1  IDiag  1:
 RMSU=  1.55D-08    CP:  9.98D-01  1.01D+00  5.76D-01  8.58D-01  1.03D+00
 E= -343.095321162699     Delta-E=       -0.000000000010 Rises=F Damp=F
 DIIS: error= 1.08D-07 at cycle   6 NSaved=   6.
 NSaved= 6 IEnMin= 6 EnMin= -343.095321162699     IErMin= 6 ErrMin= 1.08D-07
 ErrMax= 1.08D-07  0.00D+00 EMaxC= 1.00D-01 BMatC= 1.94D-12 BMatP= 1.30D-11
 IDIUse=1 WtCom= 1.00D+00 WtEn= 0.00D+00
 Coeff-Com: -0.170D-03 0.184D-01 0.237D-01 0.352D-01 0.302D+00 0.620D+00
 Coeff:     -0.170D-03 0.184D-01 0.237D-01 0.352D-01 0.302D+00 0.620D+00
 Gap=     0.174 Goal=   None    Shift=    0.000
 RMSDP=6.66D-09 MaxDP=1.87D-07 DE=-1.02D-11 OVMax= 3.24D-07

 SCF Done:  E(RB3LYP) =  -343.095321163     A.U. after   12 cycles
            NFock= 12  Conv=0.67D-08     -V/T= 2.0051
 KE= 3.413666874516D+02 PE=-1.488162067972D+03 EE= 4.585981381339D+02
 Leave Link  502 at Tue Jan 14 13:37:19 2025, MaxMem=   104857600 cpu:             107.7 elap:             108.4
 (Enter /sw/cluster/pub/apps//g16/l601.exe)
 Copying SCF densities to generalized density rwf, IOpCl= 0 IROHF=0.

 **********************************************************************

            Population analysis using the SCF density.

 **********************************************************************

 Alpha  occ. eigenvalues --  -14.31217 -14.31217 -10.19948 -10.19947 -10.16368
 Alpha  occ. eigenvalues --  -10.16364 -10.16308 -10.16308  -0.91553  -0.90592
 Alpha  occ. eigenvalues --   -0.81972  -0.74141  -0.70777  -0.61690  -0.59164
 Alpha  occ. eigenvalues --   -0.52233  -0.52214  -0.49103  -0.47916  -0.43364
 Alpha  occ. eigenvalues --   -0.41846  -0.40987  -0.38722  -0.38545  -0.33882
 Alpha  occ. eigenvalues --   -0.33847  -0.27022  -0.24992  -0.18214
 Alpha virt. eigenvalues --   -0.00779   0.01948   0.03562   0.03774   0.06374
 Alpha virt. eigenvalues --    0.06702   0.08389   0.11870   0.11895   0.13134
 Alpha virt. eigenvalues --    0.14746   0.15717   0.17593   0.18871   0.21626
 Alpha virt. eigenvalues --    0.23493   0.23885   0.24838   0.25110   0.27039
 Alpha virt. eigenvalues --    0.27986   0.28034   0.29090   0.31635   0.32163
 Alpha virt. eigenvalues --    0.33194   0.33763   0.34793   0.36318   0.38142
 Alpha virt. eigenvalues --    0.38788   0.39709   0.40417   0.41015   0.42311
 Alpha virt. eigenvalues --    0.42874   0.43598   0.43807   0.45712   0.46432
 Alpha virt. eigenvalues --    0.46871   0.47245   0.48278   0.49679   0.52086
 Alpha virt. eigenvalues --    0.52337   0.54017   0.55368   0.55440   0.58380
 Alpha virt. eigenvalues --    0.61819   0.62509   0.66489   0.67337   0.68597
 Alpha virt. eigenvalues --    0.68675   0.69137   0.69986   0.72890   0.75526
 Alpha virt. eigenvalues --    0.77147   0.78983   0.83492   0.84784   0.85238
 Alpha virt. eigenvalues --    0.88288   0.88732   0.88734   1.02652   1.03269
 Alpha virt. eigenvalues --    1.03548   1.03673   1.03754   1.08225   1.14284
 Alpha virt. eigenvalues --    1.14285   1.15470   1.17668   1.20422   1.20763
 Alpha virt. eigenvalues --    1.23733   1.24451   1.26568   1.30186   1.31297
 Alpha virt. eigenvalues --    1.33982   1.34221   1.36731   1.39573   1.41073
 Alpha virt. eigenvalues --    1.41552   1.41916   1.44694   1.48140   1.49507
 Alpha virt. eigenvalues --    1.51136   1.51510   1.55842   1.56093   1.57310
 Alpha virt. eigenvalues --    1.58646   1.59957   1.63847   1.65214   1.66921
 Alpha virt. eigenvalues --    1.67118   1.69934   1.71632   1.72981   1.73038
 Alpha virt. eigenvalues --    1.75217   1.78979   1.82029   1.84661   1.85733
 Alpha virt. eigenvalues --    1.87046   1.91239   1.92660   1.94933   1.95123
 Alpha virt. eigenvalues --    1.98626   2.02945   2.04343   2.05409   2.09922
 Alpha virt. eigenvalues --    2.12572   2.14193   2.16422   2.17295   2.19272
 Alpha virt. eigenvalues --    2.25036   2.25190   2.28770   2.30052   2.30392
 Alpha virt. eigenvalues --    2.40714   2.43402   2.45383   2.47076   2.47526
 Alpha virt. eigenvalues --    2.48168   2.53262   2.53794   2.57030   2.59745
 Alpha virt. eigenvalues --    2.61537   2.63534   2.64205   2.65724   2.66151
 Alpha virt. eigenvalues --    2.69636   2.72336   2.72626   2.73718   2.75157
 Alpha virt. eigenvalues --    2.78112   2.80552   2.81805   2.84323   2.86120
 Alpha virt. eigenvalues --    2.88061   2.88151   2.91310   2.92358   2.92645
 Alpha virt. eigenvalues --    2.94110   3.00475   3.03927   3.04321   3.04850
 Alpha virt. eigenvalues --    3.08254   3.10246   3.13815   3.14472   3.16248
 Alpha virt. eigenvalues --    3.16379   3.18734   3.22521   3.23347   3.25303
 Alpha virt. eigenvalues --    3.25313   3.25705   3.26269   3.29791   3.34209
 Alpha virt. eigenvalues --    3.35830   3.36427   3.37025   3.37164   3.41103
 Alpha virt. eigenvalues --    3.42451   3.47774   3.47892   3.48027   3.48442
 Alpha virt. eigenvalues --    3.53814   3.55270   3.57028   3.59856   3.65873
 Alpha virt. eigenvalues --    3.73892   3.81412   3.82326   3.84570   3.85607
 Alpha virt. eigenvalues --    3.86866   3.88573   3.91605   3.99573   4.02058
 Alpha virt. eigenvalues --    4.05483   4.10816   4.10916   4.12984   4.16429
 Alpha virt. eigenvalues --    4.18420   4.20257   4.24277   4.26566   4.26604
 Alpha virt. eigenvalues --    4.29278   4.38051   4.39054   4.39346   4.39838
 Alpha virt. eigenvalues --    4.53266   4.58592   4.58724   4.64156   4.69070
 Alpha virt. eigenvalues --    4.69275   4.71895   4.76318   4.76439   4.82827
 Alpha virt. eigenvalues --    4.84367   4.84745   4.90464   4.91722   4.91902
 Alpha virt. eigenvalues --    4.99244   5.01101   5.09041   5.13863   5.14033
 Alpha virt. eigenvalues --    5.22095   5.26679   5.31540   5.33693   5.35171
 Alpha virt. eigenvalues --    5.38006   5.38854   5.55102   5.59280   5.65221
 Alpha virt. eigenvalues --    5.69117   5.85040   5.92095   5.98928  22.17456
 Alpha virt. eigenvalues --   22.69998  22.70176  22.73210  22.87545  23.25846
 Alpha virt. eigenvalues --   31.99095  32.04760
          Condensed to atoms (all electrons):
               1          2          3          4          5          6
     1  C    4.807898   0.462110  -0.000534  -0.092554  -0.000534   0.462110
     2  C    0.462110   5.028240   0.445675  -0.000534  -0.082838   0.018953
     3  C   -0.000534   0.445675   5.028240   0.462110   0.018953  -0.082838
     4  C   -0.092554  -0.000534   0.462110   4.807898   0.462110  -0.000534
     5  C   -0.000534  -0.082838   0.018953   0.462110   5.028240   0.445675
     6  C    0.462110   0.018953  -0.082838  -0.000534   0.445675   5.028240
     7  H   -0.038320  -0.008354   0.000831   0.000329  -0.001448   0.000936
     8  H   -0.038320   0.000936  -0.001448   0.000329   0.000831  -0.008354
     9  H   -0.064629   0.417767  -0.035058   0.011643  -0.001675   0.008850
    10  H    0.011643  -0.035058   0.417767  -0.064629   0.008850  -0.001675
    11  N    0.006901  -0.003826  -0.042200   0.272262  -0.042200  -0.003826
    12  H    0.011643  -0.001675   0.008850  -0.064629   0.417767  -0.035058
    13  H   -0.064629   0.008850  -0.001675   0.011643  -0.035058   0.417767
    14  N    0.272262  -0.042200  -0.003826   0.006901  -0.003826  -0.042200
    15  H    0.000329   0.000831  -0.008354  -0.038320   0.000936  -0.001448
    16  H    0.000329  -0.001448   0.000936  -0.038320  -0.008354   0.000831
               7          8          9         10         11         12
     1  C   -0.038320  -0.038320  -0.064629   0.011643   0.006901   0.011643
     2  C   -0.008354   0.000936   0.417767  -0.035058  -0.003826  -0.001675
     3  C    0.000831  -0.001448  -0.035058   0.417767  -0.042200   0.008850
     4  C    0.000329   0.000329   0.011643  -0.064629   0.272262  -0.064629
     5  C   -0.001448   0.000831  -0.001675   0.008850  -0.042200   0.417767
     6  C    0.000936  -0.008354   0.008850  -0.001675  -0.003826  -0.035058
     7  H    0.491435  -0.033937   0.003517  -0.000068   0.000003   0.000028
     8  H   -0.033937   0.491435  -0.000484   0.000028   0.000003  -0.000068
     9  H    0.003517  -0.000484   0.579527  -0.009990  -0.000310   0.000082
    10  H   -0.000068   0.000028  -0.009990   0.579527  -0.000968  -0.000467
    11  N    0.000003   0.000003  -0.000310  -0.000968   6.533513  -0.000968
    12  H    0.000028  -0.000068   0.000082  -0.000467  -0.000968   0.579527
    13  H   -0.000484   0.003517  -0.000467   0.000082  -0.000310  -0.009990
    14  N    0.371716   0.371716  -0.000968  -0.000310   0.000028  -0.000310
    15  H    0.000001   0.000001  -0.000068   0.003517   0.371716  -0.000484
    16  H    0.000001   0.000001   0.000028  -0.000484   0.371716   0.003517
              13         14         15         16
     1  C   -0.064629   0.272262   0.000329   0.000329
     2  C    0.008850  -0.042200   0.000831  -0.001448
     3  C   -0.001675  -0.003826  -0.008354   0.000936
     4  C    0.011643   0.006901  -0.038320  -0.038320
     5  C   -0.035058  -0.003826   0.000936  -0.008354
     6  C    0.417767  -0.042200  -0.001448   0.000831
     7  H   -0.000484   0.371716   0.000001   0.000001
     8  H    0.003517   0.371716   0.000001   0.000001
     9  H   -0.000467  -0.000968  -0.000068   0.000028
    10  H    0.000082  -0.000310   0.003517  -0.000484
    11  N   -0.000310   0.000028   0.371716   0.371716
    12  H   -0.009990  -0.000310  -0.000484   0.003517
    13  H    0.579527  -0.000968   0.000028  -0.000068
    14  N   -0.000968   6.533513   0.000003   0.000003
    15  H    0.000028   0.000003   0.491435  -0.033937
    16  H   -0.000068   0.000003  -0.033937   0.491435
 Mulliken charges:
               1
     1  C    0.264296
     2  C   -0.207430
     3  C   -0.207430
     4  C    0.264296
     5  C   -0.207430
     6  C   -0.207430
     7  H    0.213815
     8  H    0.213815
     9  H    0.092234
    10  H    0.092234
    11  N   -0.461534
    12  H    0.092234
    13  H    0.092234
    14  N   -0.461534
    15  H    0.213815
    16  H    0.213815
 Sum of Mulliken charges =  -0.00000
 Mulliken charges with hydrogens summed into heavy atoms:
               1
     1  C    0.264296
     2  C   -0.115196
     3  C   -0.115196
     4  C    0.264296
     5  C   -0.115196
     6  C   -0.115196
    11  N   -0.033904
    14  N   -0.033904
 Electronic spatial extent (au):  <R**2>=            995.5135
 Charge=             -0.0000 electrons
 Dipole moment (field-independent basis, Debye):
    X=              0.0000    Y=             -0.0000    Z=              0.0000  Tot=              0.0000
 Quadrupole moment (field-independent basis, Debye-Ang):
   XX=            -37.8566   YY=            -41.8343   ZZ=            -53.3396
   XY=             -0.0000   XZ=              7.8455   YZ=             -0.0000
 Traceless Quadrupole moment (field-independent basis, Debye-Ang):
   XX=              6.4869   YY=              2.5092   ZZ=             -8.9961
   XY=             -0.0000   XZ=              7.8455   YZ=             -0.0000
 Octapole moment (field-independent basis, Debye-Ang**2):
  XXX=              0.0000  YYY=              0.0000  ZZZ=              0.0000  XYY=              0.0000
  XXY=             -0.0000  XXZ=             -0.0000  XZZ=              0.0000  YZZ=             -0.0000
  YYZ=              0.0000  XYZ=             -0.0000
 Hexadecapole moment (field-independent basis, Debye-Ang**3):
 XXXX=           -801.1237 YYYY=           -296.1520 ZZZZ=            -63.4678 XXXY=             -0.0000
 XXXZ=             92.4536 YYYX=             -0.0000 YYYZ=             -0.0000 ZZZX=              3.0856
 ZZZY=             -0.0000 XXYY=           -165.2252 XXZZ=           -186.7150 YYZZ=            -70.2362
 XXYZ=              0.0000 YYXZ=              4.5728 ZZXY=             -0.0000
 N-N= 3.451019212238D+02 E-N=-1.488162051229D+03  KE= 3.413666874516D+02
 No NMR shielding tensors so no spin-rotation constants.
 Leave Link  601 at Tue Jan 14 13:37:19 2025, MaxMem=   104857600 cpu:               0.1 elap:               0.1
 (Enter /sw/cluster/pub/apps//g16/l9999.exe)
 1\1\GINC-N02\SP\RB3LYP\def2TZVP\C6H8N2\UNKNOWN\14-Jan-2025\0\\#P B3LYP
 /def2tzvp nosymm Density=Current\\Single-Point\\0,1\C,0,1.41618356,0.,
 0.00068964\C,0,0.69391873,1.19497899,-0.00068964\C,0,-0.69391873,1.194
 97899,0.00068964\C,0,-1.41618356,0.,-0.00068964\C,0,-0.69391873,-1.194
 97899,0.00068964\C,0,0.69391873,-1.19497899,-0.00068964\H,0,3.25185986
 ,0.82986429,0.31054592\H,0,3.25185986,-0.82986429,0.31054592\H,0,1.224
 19096,2.14078682,-0.00752106\H,0,-1.22419096,2.14078682,0.00752106\N,0
 ,-2.82022536,0.,0.06772003\H,0,-1.22419096,-2.14078682,0.00752106\H,0,
 1.22419096,-2.14078682,-0.00752106\N,0,2.82022536,0.,-0.06772003\H,0,-
 3.25185986,0.82986429,-0.31054592\H,0,-3.25185986,-0.82986429,-0.31054
 592\\Version=ES64L-G16RevA.03\HF=-343.0953212\RMSD=6.663e-09\Dipole=0.
 ,0.,0.\Quadrupole=4.8228356,1.8655574,-6.688393,0.,5.8329271,0.\PG=C02
 H [SGH(C2N2),X(C4H8)]\\@


 A politician is a person who can make waves and then
 make you think he's the only one who can save the ship.
 -- Ivern Ball
 Job cpu time:       0 days  0 hours  1 minutes 50.6 seconds.
 Elapsed time:       0 days  0 hours  1 minutes 51.4 seconds.
 File lengths (MBytes):  RWF=     52 Int=      0 D2E=      0 Chk=      6 Scr=      1
 Normal termination of Gaussian 16 at Tue Jan 14 13:37:20 2025.
