 Entering Gaussian System, Link 0=g16
 Initial command:
 /sw/cluster/pub/apps//g16/l1.exe "/data/mmaximo/28065/Gau-960257.inp" -scrdir="/data/mmaximo/28065/"
 Entering Link 1 = /sw/cluster/pub/apps//g16/l1.exe PID=    960258.
  
 Copyright (c) 1988,1990,1992,1993,1995,1998,2003,2009,2016,
            Gaussian, Inc.  All Rights Reserved.
  
 This is part of the Gaussian(R) 16 program.  It is based on
 the Gaussian(R) 09 system (copyright 2009, Gaussian, Inc.),
 the Gaussian(R) 03 system (copyright 2003, Gaussian, Inc.),
 the Gaussian(R) 98 system (copyright 1998, Gaussian, Inc.),
 the Gaussian(R) 94 system (copyright 1995, Gaussian, Inc.),
 the Gaussian 92(TM) system (copyright 1992, Gaussian, Inc.),
 the Gaussian 90(TM) system (copyright 1990, Gaussian, Inc.),
 the Gaussian 88(TM) system (copyright 1988, Gaussian, Inc.),
 the Gaussian 86(TM) system (copyright 1986, Carnegie Mellon
 University), and the Gaussian 82(TM) system (copyright 1983,
 Carnegie Mellon University). Gaussian is a federally registered
 trademark of Gaussian, Inc.
  
 This software contains proprietary and confidential information,
 including trade secrets, belonging to Gaussian, Inc.
  
 This software is provided under written license and may be
 used, copied, transmitted, or stored only in accord with that
 written license.
  
 The following legend is applicable only to US Government
 contracts under FAR:
  
                    RESTRICTED RIGHTS LEGEND
  
 Use, reproduction and disclosure by the US Government is
 subject to restrictions as set forth in subparagraphs (a)
 and (c) of the Commercial Computer Software - Restricted
 Rights clause in FAR 52.227-19.
  
 Gaussian, Inc.
 340 Quinnipiac St., Bldg. 40, Wallingford CT 06492
  
  
 ---------------------------------------------------------------
 Warning -- This program may not be used in any manner that
 competes with the business of Gaussian, Inc. or will provide
 assistance to any competitor of Gaussian, Inc.  The licensee
 of this program is prohibited from giving any competitor of
 Gaussian, Inc. access to this program.  By using this program,
 the user acknowledges that Gaussian, Inc. is engaged in the
 business of creating and licensing software in the field of
 computational chemistry and represents and warrants to the
 licensee that it is not a competitor of Gaussian, Inc. and that
 it will not use this program in any manner prohibited above.
 ---------------------------------------------------------------
  

 Cite this work as:
 Gaussian 16, Revision A.03,
 M. J. Frisch, G. W. Trucks, H. B. Schlegel, G. E. Scuseria, 
 M. A. Robb, J. R. Cheeseman, G. Scalmani, V. Barone, 
 G. A. Petersson, H. Nakatsuji, X. Li, M. Caricato, A. V. Marenich, 
 J. Bloino, B. G. Janesko, R. Gomperts, B. Mennucci, H. P. Hratchian, 
 J. V. Ortiz, A. F. Izmaylov, J. L. Sonnenberg, D. Williams-Young, 
 F. Ding, F. Lipparini, F. Egidi, J. Goings, B. Peng, A. Petrone, 
 T. Henderson, D. Ranasinghe, V. G. Zakrzewski, J. Gao, N. Rega, 
 G. Zheng, W. Liang, M. Hada, M. Ehara, K. Toyota, R. Fukuda, 
 J. Hasegawa, M. Ishida, T. Nakajima, Y. Honda, O. Kitao, H. Nakai, 
 T. Vreven, K. Throssell, J. A. Montgomery, Jr., J. E. Peralta, 
 F. Ogliaro, M. J. Bearpark, J. J. Heyd, E. N. Brothers, K. N. Kudin, 
 V. N. Staroverov, T. A. Keith, R. Kobayashi, J. Normand, 
 K. Raghavachari, A. P. Rendell, J. C. Burant, S. S. Iyengar, 
 J. Tomasi, M. Cossi, J. M. Millam, M. Klene, C. Adamo, R. Cammi, 
 J. W. Ochterski, R. L. Martin, K. Morokuma, O. Farkas, 
 J. B. Foresman, and D. J. Fox, Gaussian, Inc., Wallingford CT, 2016.
 
 ******************************************
 Gaussian 16:  ES64L-G16RevA.03 25-Dec-2016
                21-Jan-2025 
 ******************************************
 %chk=C6H5O-.chk
 -------------------------
 # opt freq b3lyp def2tzvp
 -------------------------
 1/18=20,19=15,26=3,38=1/1,3;
 2/9=110,12=2,17=6,18=5,40=1/2;
 3/5=44,7=101,11=2,25=1,30=1,71=1,74=-5/1,2,3;
 4//1;
 5/5=2,38=5/2;
 6/7=2,8=2,9=2,10=2,28=1/1;
 7//1,2,3,16;
 1/18=20,19=15,26=3/3(2);
 2/9=110/2;
 99//99;
 2/9=110/2;
 3/5=44,7=101,11=2,25=1,30=1,71=1,74=-5/1,2,3;
 4/5=5,16=3,69=1/1;
 5/5=2,38=5/2;
 7//1,2,3,16;
 1/18=20,19=15,26=3/3(-5);
 2/9=110/2;
 6/7=2,8=2,9=2,10=2,19=2,28=1/1;
 99/9=1/99;
 --------
 opt meta
 --------
 Symbolic Z-matrix:
 Charge = -1 Multiplicity = 1
 C                     0.03957  -1.76937   0.02369 
 C                     1.23532  -1.03938  -0.01122 
 C                     1.20204   0.31535  -0.02432 
 C                    -0.02813   0.98627  -0.00296 
 C                    -1.22389   0.25629   0.03195 
 C                    -1.1906   -1.09844   0.04504 
 H                     0.06585  -2.83899   0.03403 
 H                     2.17459  -1.55165  -0.02752 
 H                     2.11502   0.8727   -0.05097 
 H                    -2.16315   0.76856   0.04825 
 O                    -0.05904   2.24423  -0.01513 
 C                    -2.50462  -1.90062   0.0834 
 O                    -3.60926  -1.29815   0.10258 
 O                    -2.4695   -3.33012   0.09723 
 H                    -3.25541  -3.67371  -0.33392 
 

 GradGradGradGradGradGradGradGradGradGradGradGradGradGradGradGradGradGrad
 Berny optimization.
 Initialization pass.
                           ----------------------------
                           !    Initial Parameters    !
                           ! (Angstroms and Degrees)  !
 --------------------------                            --------------------------
 ! Name  Definition              Value          Derivative Info.                !
 --------------------------------------------------------------------------------
 ! R1    R(1,2)                  1.4014         estimate D2E/DX2                !
 ! R2    R(1,6)                  1.4014         estimate D2E/DX2                !
 ! R3    R(1,7)                  1.07           estimate D2E/DX2                !
 ! R4    R(2,3)                  1.3552         estimate D2E/DX2                !
 ! R5    R(2,8)                  1.07           estimate D2E/DX2                !
 ! R6    R(3,4)                  1.4014         estimate D2E/DX2                !
 ! R7    R(3,9)                  1.07           estimate D2E/DX2                !
 ! R8    R(4,5)                  1.4014         estimate D2E/DX2                !
 ! R9    R(4,11)                 1.2584         estimate D2E/DX2                !
 ! R10   R(5,6)                  1.3552         estimate D2E/DX2                !
 ! R11   R(5,10)                 1.07           estimate D2E/DX2                !
 ! R12   R(6,12)                 1.54           estimate D2E/DX2                !
 ! R13   R(12,13)                1.2584         estimate D2E/DX2                !
 ! R14   R(12,14)                1.43           estimate D2E/DX2                !
 ! R15   R(14,15)                0.96           estimate D2E/DX2                !
 ! A1    A(2,1,6)              120.0            estimate D2E/DX2                !
 ! A2    A(2,1,7)              120.0            estimate D2E/DX2                !
 ! A3    A(6,1,7)              120.0            estimate D2E/DX2                !
 ! A4    A(1,2,3)              120.0            estimate D2E/DX2                !
 ! A5    A(1,2,8)              120.0            estimate D2E/DX2                !
 ! A6    A(3,2,8)              120.0            estimate D2E/DX2                !
 ! A7    A(2,3,4)              120.0            estimate D2E/DX2                !
 ! A8    A(2,3,9)              120.0            estimate D2E/DX2                !
 ! A9    A(4,3,9)              120.0            estimate D2E/DX2                !
 ! A10   A(3,4,5)              120.0            estimate D2E/DX2                !
 ! A11   A(3,4,11)             120.0            estimate D2E/DX2                !
 ! A12   A(5,4,11)             120.0            estimate D2E/DX2                !
 ! A13   A(4,5,6)              120.0            estimate D2E/DX2                !
 ! A14   A(4,5,10)             120.0            estimate D2E/DX2                !
 ! A15   A(6,5,10)             120.0            estimate D2E/DX2                !
 ! A16   A(1,6,5)              120.0            estimate D2E/DX2                !
 ! A17   A(1,6,12)             120.0            estimate D2E/DX2                !
 ! A18   A(5,6,12)             120.0            estimate D2E/DX2                !
 ! A19   A(6,12,13)            120.0            estimate D2E/DX2                !
 ! A20   A(6,12,14)            120.0            estimate D2E/DX2                !
 ! A21   A(13,12,14)           120.0            estimate D2E/DX2                !
 ! A22   A(12,14,15)           109.4712         estimate D2E/DX2                !
 ! D1    D(6,1,2,3)              0.0            estimate D2E/DX2                !
 ! D2    D(6,1,2,8)           -180.0            estimate D2E/DX2                !
 ! D3    D(7,1,2,3)            179.9998         estimate D2E/DX2                !
 ! D4    D(7,1,2,8)             -0.0002         estimate D2E/DX2                !
 ! D5    D(2,1,6,5)             -0.0001         estimate D2E/DX2                !
 ! D6    D(2,1,6,12)          -179.9999         estimate D2E/DX2                !
 ! D7    D(7,1,6,5)           -179.9999         estimate D2E/DX2                !
 ! D8    D(7,1,6,12)             0.0002         estimate D2E/DX2                !
 ! D9    D(1,2,3,4)              0.0001         estimate D2E/DX2                !
 ! D10   D(1,2,3,9)            180.0            estimate D2E/DX2                !
 ! D11   D(8,2,3,4)           -180.0            estimate D2E/DX2                !
 ! D12   D(8,2,3,9)              0.0            estimate D2E/DX2                !
 ! D13   D(2,3,4,5)              0.0            estimate D2E/DX2                !
 ! D14   D(2,3,4,11)          -179.9999         estimate D2E/DX2                !
 ! D15   D(9,3,4,5)           -179.9999         estimate D2E/DX2                !
 ! D16   D(9,3,4,11)             0.0002         estimate D2E/DX2                !
 ! D17   D(3,4,5,6)             -0.0001         estimate D2E/DX2                !
 ! D18   D(3,4,5,10)          -179.9999         estimate D2E/DX2                !
 ! D19   D(11,4,5,6)           179.9998         estimate D2E/DX2                !
 ! D20   D(11,4,5,10)            0.0            estimate D2E/DX2                !
 ! D21   D(4,5,6,1)              0.0001         estimate D2E/DX2                !
 ! D22   D(4,5,6,12)           180.0            estimate D2E/DX2                !
 ! D23   D(10,5,6,1)           180.0            estimate D2E/DX2                !
 ! D24   D(10,5,6,12)           -0.0002         estimate D2E/DX2                !
 ! D25   D(1,6,12,13)          180.0            estimate D2E/DX2                !
 ! D26   D(1,6,12,14)            0.0            estimate D2E/DX2                !
 ! D27   D(5,6,12,13)            0.0001         estimate D2E/DX2                !
 ! D28   D(5,6,12,14)         -179.9999         estimate D2E/DX2                !
 ! D29   D(6,12,14,15)        -150.0            estimate D2E/DX2                !
 ! D30   D(13,12,14,15)         30.0            estimate D2E/DX2                !
 --------------------------------------------------------------------------------
 Trust Radius=3.00D-01 FncErr=1.00D-07 GrdErr=1.00D-06 EigMax=2.50D+02 EigMin=1.00D-04
 Number of steps in this run=     77 maximum allowed number of steps=    100.
 GradGradGradGradGradGradGradGradGradGradGradGradGradGradGradGradGradGrad

                          Input orientation:                          
 ---------------------------------------------------------------------
 Center     Atomic      Atomic             Coordinates (Angstroms)
 Number     Number       Type             X           Y           Z
 ---------------------------------------------------------------------
      1          6           0        0.039568   -1.769367    0.023688
      2          6           0        1.235322   -1.039383   -0.011216
      3          6           0        1.202039    0.315345   -0.024318
      4          6           0       -0.028132    0.986273   -0.002960
      5          6           0       -1.223886    0.256289    0.031945
      6          6           0       -1.190603   -1.098439    0.045045
      7          1           0        0.065847   -2.838994    0.034030
      8          1           0        2.174585   -1.551651   -0.027523
      9          1           0        2.115024    0.872704   -0.050968
     10          1           0       -2.163149    0.768557    0.048251
     11          8           0       -0.059038    2.244235   -0.015128
     12          6           0       -2.504618   -1.900619    0.083403
     13          8           0       -3.609262   -1.298153    0.102580
     14          8           0       -2.469498   -3.330121    0.097228
     15          1           0       -3.255413   -3.673711   -0.333915
 ---------------------------------------------------------------------
                    Distance matrix (angstroms):
                    1          2          3          4          5
     1  C    0.000000
     2  C    1.401400   0.000000
     3  C    2.387397   1.355200   0.000000
     4  C    2.756600   2.387397   1.401400   0.000000
     5  C    2.387397   2.779988   2.427296   1.401400   0.000000
     6  C    1.401400   2.427296   2.779988   2.387397   1.355200
     7  H    1.070000   2.146700   3.353236   3.826600   3.353236
     8  H    2.146700   1.070000   2.105120   3.360599   3.849908
     9  H    3.360599   2.105120   1.070000   2.146700   3.396345
    10  H    3.360599   3.849908   3.396345   2.146700   1.070000
    11  O    4.015000   3.529522   2.304564   1.258400   2.304564
    12  C    2.548270   3.838989   4.319885   3.804548   2.509019
    13  O    3.679977   4.852825   5.076229   4.249027   2.848034
    14  O    2.955804   4.357170   5.175363   4.959996   3.797124
    15  H    3.822474   5.216370   5.989766   5.678056   4.439127
                    6          7          8          9         10
     6  C    0.000000
     7  H    2.146700   0.000000
     8  H    3.396345   2.471400   0.000000
     9  H    3.849908   4.240643   2.425200   0.000000
    10  H    2.105120   4.240643   4.919863   4.280590   0.000000
    11  O    3.529522   5.085000   4.404313   2.570783   2.570783
    12  C    1.540000   2.736837   4.693509   5.389849   2.691159
    13  O    2.427572   3.985638   5.790861   6.124022   2.522991
    14  O    2.572683   2.583249   4.974538   6.221217   4.110403
    15  H    3.322510   3.444256   5.837970   7.042125   4.590516
                   11         12         13         14         15
    11  O    0.000000
    12  C    4.813562   0.000000
    13  O    5.016618   1.258400   0.000000
    14  O    6.074239   1.430000   2.329803   0.000000
    15  H    6.733536   1.970203   2.441108   0.960000   0.000000
 Stoichiometry    C7H5O3(1-)
 Framework group  C1[X(C7H5O3)]
 Deg. of freedom    39
 Full point group                 C1      NOp   1
 Largest Abelian subgroup         C1      NOp   1
 Largest concise Abelian subgroup C1      NOp   1
                         Standard orientation:                         
 ---------------------------------------------------------------------
 Center     Atomic      Atomic             Coordinates (Angstroms)
 Number     Number       Type             X           Y           Z
 ---------------------------------------------------------------------
      1          6           0       -0.072365    1.418228   -0.009581
      2          6           0        1.288710    1.751905   -0.002135
      3          6           0        2.226241    0.773361    0.005361
      4          6           0        1.834657   -0.572218    0.005665
      5          6           0        0.473582   -0.905895   -0.001783
      6          6           0       -0.463949    0.072648   -0.009277
      7          1           0       -0.812594    2.190838   -0.015496
      8          1           0        1.587693    2.779284   -0.002367
      9          1           0        3.265452    1.028131    0.011047
     10          1           0        0.174599   -1.933275   -0.001550
     11          8           0        2.705222   -1.480866    0.012627
     12          6           0       -1.959636   -0.294030   -0.017461
     13          8           0       -2.311262   -1.502305   -0.017188
     14          8           0       -2.948914    0.738524   -0.025371
     15          1           0       -3.738963    0.428196    0.423092
 ---------------------------------------------------------------------
 Rotational constants (GHZ):           2.7987971           0.9339418           0.7006539
 Standard basis: def2TZVP (5D, 7F)
 There are   390 symmetry adapted cartesian basis functions of A   symmetry.
 There are   340 symmetry adapted basis functions of A   symmetry.
   340 basis functions,   550 primitive gaussians,   390 cartesian basis functions
    36 alpha electrons       36 beta electrons
       nuclear repulsion energy       474.7024867292 Hartrees.
 NAtoms=   15 NActive=   15 NUniq=   15 SFac= 1.00D+00 NAtFMM=   60 NAOKFM=F Big=F
 Integral buffers will be    131072 words long.
 Raffenetti 2 integral format.
 Two-electron integral symmetry is turned on.
 One-electron integrals computed using PRISM.
   1 Symmetry operations used in ECPInt.
 ECPInt:  NShTT=    8515 NPrTT=   26800 LenC2=    8135 LenP2D=   19883.
 LDataN:  DoStor=T MaxTD1= 6 Len=  172
 NBasis=   340 RedAO= T EigKep=  8.81D-06  NBF=   340
 NBsUse=   340 1.00D-06 EigRej= -1.00D+00 NBFU=   340
 ExpMin= 9.52D-02 ExpMax= 2.70D+04 ExpMxC= 9.22D+02 IAcc=3 IRadAn=         5 AccDes= 0.00D+00
 Harris functional with IExCor=  402 and IRadAn=       5 diagonalized for initial guess.
 HarFok:  IExCor=  402 AccDes= 0.00D+00 IRadAn=         5 IDoV= 1 UseB2=F ITyADJ=14
 ICtDFT=  3500011 ScaDFX=  1.000000  1.000000  1.000000  1.000000
 FoFCou: FMM=F IPFlag=           0 FMFlag=      100000 FMFlg1=           0
         NFxFlg=           0 DoJE=T BraDBF=F KetDBF=T FulRan=T
         wScrn=  0.000000 ICntrl=       500 IOpCl=  0 I1Cent=   200000004 NGrid=           0
         NMat0=    1 NMatS0=      1 NMatT0=    0 NMatD0=    1 NMtDS0=    0 NMtDT0=    0
 Petite list used in FoFCou.
 Requested convergence on RMS density matrix=1.00D-08 within 128 cycles.
 Requested convergence on MAX density matrix=1.00D-06.
 Requested convergence on             energy=1.00D-06.
 No special actions if energy rises.
 Integral accuracy reduced to 1.0D-05 until final iterations.
 EnCoef did     2 forward-backward iterations
 EnCoef did     2 forward-backward iterations
 EnCoef did     6 forward-backward iterations
 Initial convergence to 1.0D-05 achieved.  Increase integral accuracy.
 SCF Done:  E(RB3LYP) =  -495.669080414     A.U. after   20 cycles
            NFock= 20  Conv=0.73D-08     -V/T= 2.0043

 **********************************************************************

            Population analysis using the SCF density.

 **********************************************************************

 Orbital symmetries:
       Occupied  (A) (A) (A) (A) (A) (A) (A) (A) (A) (A) (A) (A)
                 (A) (A) (A) (A) (A) (A) (A) (A) (A) (A) (A) (A)
                 (A) (A) (A) (A) (A) (A) (A) (A) (A) (A) (A) (A)
       Virtual   (A) (A) (A) (A) (A) (A) (A) (A) (A) (A) (A) (A)
                 (A) (A) (A) (A) (A) (A) (A) (A) (A) (A) (A) (A)
                 (A) (A) (A) (A) (A) (A) (A) (A) (A) (A) (A) (A)
                 (A) (A) (A) (A) (A) (A) (A) (A) (A) (A) (A) (A)
                 (A) (A) (A) (A) (A) (A) (A) (A) (A) (A) (A) (A)
                 (A) (A) (A) (A) (A) (A) (A) (A) (A) (A) (A) (A)
                 (A) (A) (A) (A) (A) (A) (A) (A) (A) (A) (A) (A)
                 (A) (A) (A) (A) (A) (A) (A) (A) (A) (A) (A) (A)
                 (A) (A) (A) (A) (A) (A) (A) (A) (A) (A) (A) (A)
                 (A) (A) (A) (A) (A) (A) (A) (A) (A) (A) (A) (A)
                 (A) (A) (A) (A) (A) (A) (A) (A) (A) (A) (A) (A)
                 (A) (A) (A) (A) (A) (A) (A) (A) (A) (A) (A) (A)
                 (A) (A) (A) (A) (A) (A) (A) (A) (A) (A) (A) (A)
                 (A) (A) (A) (A) (A) (A) (A) (A) (A) (A) (A) (A)
                 (A) (A) (A) (A) (A) (A) (A) (A) (A) (A) (A) (A)
                 (A) (A) (A) (A) (A) (A) (A) (A) (A) (A) (A) (A)
                 (A) (A) (A) (A) (A) (A) (A) (A) (A) (A) (A) (A)
                 (A) (A) (A) (A) (A) (A) (A) (A) (A) (A) (A) (A)
                 (A) (A) (A) (A) (A) (A) (A) (A) (A) (A) (A) (A)
                 (A) (A) (A) (A) (A) (A) (A) (A) (A) (A) (A) (A)
                 (A) (A) (A) (A) (A) (A) (A) (A) (A) (A) (A) (A)
                 (A) (A) (A) (A) (A) (A) (A) (A) (A) (A) (A) (A)
                 (A) (A) (A) (A) (A) (A) (A) (A) (A) (A) (A) (A)
                 (A) (A) (A) (A) (A) (A) (A) (A) (A) (A) (A) (A)
                 (A) (A) (A) (A) (A) (A) (A) (A) (A) (A) (A) (A)
                 (A) (A) (A) (A)
 The electronic state is 1-A.
 Alpha  occ. eigenvalues --  -19.04849 -18.98902 -18.86490 -10.18767 -10.03928
 Alpha  occ. eigenvalues --  -10.03532 -10.01662 -10.00623  -9.99281  -9.99075
 Alpha  occ. eigenvalues --   -0.95338  -0.87254  -0.79937  -0.69161  -0.60925
 Alpha  occ. eigenvalues --   -0.55694  -0.51039  -0.43923  -0.43699  -0.35746
 Alpha  occ. eigenvalues --   -0.35514  -0.32318  -0.31207  -0.29867  -0.28480
 Alpha  occ. eigenvalues --   -0.26388  -0.23087  -0.22810  -0.20528  -0.19739
 Alpha  occ. eigenvalues --   -0.18802  -0.15088  -0.15066  -0.11150  -0.04247
 Alpha  occ. eigenvalues --   -0.01798
 Alpha virt. eigenvalues --    0.08543   0.13373   0.16682   0.18822   0.20543
 Alpha virt. eigenvalues --    0.22694   0.23564   0.24875   0.26656   0.28276
 Alpha virt. eigenvalues --    0.30120   0.30685   0.32899   0.34602   0.35036
 Alpha virt. eigenvalues --    0.35567   0.36727   0.37618   0.39698   0.40247
 Alpha virt. eigenvalues --    0.40705   0.41919   0.43384   0.43623   0.46065
 Alpha virt. eigenvalues --    0.46870   0.47101   0.49970   0.50686   0.51778
 Alpha virt. eigenvalues --    0.52407   0.53349   0.54050   0.54366   0.55551
 Alpha virt. eigenvalues --    0.56843   0.58298   0.58456   0.59717   0.61143
 Alpha virt. eigenvalues --    0.62148   0.63184   0.64679   0.64739   0.65682
 Alpha virt. eigenvalues --    0.66683   0.68203   0.69571   0.70150   0.73612
 Alpha virt. eigenvalues --    0.75885   0.77252   0.78724   0.79660   0.80919
 Alpha virt. eigenvalues --    0.82152   0.85116   0.86728   0.87424   0.87881
 Alpha virt. eigenvalues --    0.89924   0.90451   0.91799   0.93028   0.93940
 Alpha virt. eigenvalues --    0.96220   0.99702   0.99760   1.01999   1.03944
 Alpha virt. eigenvalues --    1.04444   1.05752   1.07060   1.07874   1.10571
 Alpha virt. eigenvalues --    1.13349   1.15109   1.20057   1.20777   1.23002
 Alpha virt. eigenvalues --    1.25082   1.26563   1.30122   1.33962   1.35986
 Alpha virt. eigenvalues --    1.36873   1.37825   1.39665   1.41732   1.42476
 Alpha virt. eigenvalues --    1.43373   1.45355   1.49301   1.51639   1.53090
 Alpha virt. eigenvalues --    1.56193   1.57633   1.58687   1.60637   1.61450
 Alpha virt. eigenvalues --    1.61982   1.64628   1.66308   1.67930   1.70052
 Alpha virt. eigenvalues --    1.71710   1.72199   1.74207   1.77926   1.79486
 Alpha virt. eigenvalues --    1.80673   1.81983   1.85144   1.85483   1.88417
 Alpha virt. eigenvalues --    1.92918   1.95532   1.98058   1.99317   2.01193
 Alpha virt. eigenvalues --    2.03908   2.05774   2.07046   2.08802   2.09208
 Alpha virt. eigenvalues --    2.10700   2.11542   2.14561   2.16546   2.17421
 Alpha virt. eigenvalues --    2.23814   2.26483   2.27061   2.29322   2.32124
 Alpha virt. eigenvalues --    2.32551   2.33670   2.36163   2.37860   2.40555
 Alpha virt. eigenvalues --    2.42942   2.44410   2.48683   2.51553   2.53960
 Alpha virt. eigenvalues --    2.56324   2.62010   2.62803   2.66217   2.69857
 Alpha virt. eigenvalues --    2.71882   2.73849   2.75970   2.76579   2.76815
 Alpha virt. eigenvalues --    2.78987   2.80312   2.83400   2.85216   2.87269
 Alpha virt. eigenvalues --    2.87628   2.87855   2.89313   2.91667   2.93257
 Alpha virt. eigenvalues --    2.94364   2.96400   2.98756   2.99075   3.00938
 Alpha virt. eigenvalues --    3.01902   3.02859   3.05823   3.08157   3.08743
 Alpha virt. eigenvalues --    3.10052   3.11963   3.13450   3.15246   3.20554
 Alpha virt. eigenvalues --    3.20918   3.22985   3.24515   3.27211   3.28016
 Alpha virt. eigenvalues --    3.29965   3.30907   3.31718   3.32485   3.32577
 Alpha virt. eigenvalues --    3.35959   3.36133   3.39709   3.40633   3.43880
 Alpha virt. eigenvalues --    3.44545   3.45085   3.47635   3.48272   3.48709
 Alpha virt. eigenvalues --    3.51931   3.52446   3.54976   3.55199   3.57939
 Alpha virt. eigenvalues --    3.60257   3.61051   3.63709   3.64724   3.66610
 Alpha virt. eigenvalues --    3.70686   3.71142   3.72651   3.73934   3.78148
 Alpha virt. eigenvalues --    3.80437   3.83510   3.88758   3.93928   3.95589
 Alpha virt. eigenvalues --    3.96352   3.99787   4.01808   4.07330   4.11172
 Alpha virt. eigenvalues --    4.13504   4.17758   4.20354   4.23698   4.29863
 Alpha virt. eigenvalues --    4.32320   4.36455   4.37769   4.38375   4.41949
 Alpha virt. eigenvalues --    4.42439   4.43734   4.49976   4.51209   4.56382
 Alpha virt. eigenvalues --    4.62306   4.64069   4.71845   4.75513   4.78260
 Alpha virt. eigenvalues --    4.80708   4.84945   4.95397   4.97898   5.06117
 Alpha virt. eigenvalues --    5.06856   5.15141   5.27499   5.29447   5.31137
 Alpha virt. eigenvalues --    5.33910   5.36261   5.38791   5.44080   5.46738
 Alpha virt. eigenvalues --    5.47781   5.50478   5.52391   5.55938   5.59841
 Alpha virt. eigenvalues --    5.62310   5.74384   5.78463   5.79154   5.89221
 Alpha virt. eigenvalues --    5.98440   6.01956   6.12031   6.26750   6.33679
 Alpha virt. eigenvalues --    6.37202   6.45443   6.54601   6.56304   6.60893
 Alpha virt. eigenvalues --    6.61352   6.70946   6.75787   6.83545   6.85918
 Alpha virt. eigenvalues --    6.88102   6.94898   7.03059   7.05813   7.12682
 Alpha virt. eigenvalues --    7.21996   7.29091   7.30069   7.33516  22.29298
 Alpha virt. eigenvalues --   22.77596  22.92481  23.00579  23.04460  23.30842
 Alpha virt. eigenvalues --   23.66088  43.83915  43.96083  44.14349
          Condensed to atoms (all electrons):
               1          2          3          4          5          6
     1  C    5.540724   0.125864   0.264411  -0.285221   0.060110   0.145649
     2  C    0.125864   5.705405  -0.399572   0.403371  -0.233170   0.204308
     3  C    0.264411  -0.399572   6.432328  -0.262857   0.276346  -0.306079
     4  C   -0.285221   0.403371  -0.262857   5.345505  -0.695800   0.610547
     5  C    0.060110  -0.233170   0.276346  -0.695800   7.630730  -0.928952
     6  C    0.145649   0.204308  -0.306079   0.610547  -0.928952   6.576403
     7  H    0.449812  -0.085001   0.016229  -0.006647   0.016842  -0.054910
     8  H   -0.081985   0.412561  -0.035441   0.010625  -0.009623   0.016241
     9  H    0.030842  -0.115592   0.430459  -0.100291   0.064386  -0.023014
    10  H    0.027110  -0.016066   0.046443  -0.110160   0.463272  -0.095394
    11  O   -0.009793   0.052731  -0.226268   0.787684  -0.259072   0.063023
    12  C   -0.026451  -0.006829  -0.002696   0.006126  -0.056285   0.023307
    13  O    0.003601   0.000387  -0.000757   0.004211   0.007274  -0.196786
    14  O    0.023197  -0.001142  -0.000060   0.001279  -0.003185  -0.161366
    15  H   -0.005454  -0.000133   0.000043  -0.000213   0.001247   0.027567
               7          8          9         10         11         12
     1  C    0.449812  -0.081985   0.030842   0.027110  -0.009793  -0.026451
     2  C   -0.085001   0.412561  -0.115592  -0.016066   0.052731  -0.006829
     3  C    0.016229  -0.035441   0.430459   0.046443  -0.226268  -0.002696
     4  C   -0.006647   0.010625  -0.100291  -0.110160   0.787684   0.006126
     5  C    0.016842  -0.009623   0.064386   0.463272  -0.259072  -0.056285
     6  C   -0.054910   0.016241  -0.023014  -0.095394   0.063023   0.023307
     7  H    0.614103  -0.010268  -0.000190  -0.000318  -0.000028  -0.016905
     8  H   -0.010268   0.674386  -0.019109   0.000283  -0.000630  -0.000892
     9  H   -0.000190  -0.019109   0.683649  -0.000286   0.016231   0.000323
    10  H   -0.000318   0.000283  -0.000286   0.609671   0.012449  -0.023011
    11  O   -0.000028  -0.000630   0.016231   0.012449   8.099910  -0.001393
    12  C   -0.016905  -0.000892   0.000323  -0.023011  -0.001393   4.713790
    13  O    0.000174   0.000012  -0.000006   0.014659   0.000016   0.707898
    14  O    0.010318  -0.000097  -0.000004   0.000821   0.000001   0.405061
    15  H   -0.000646  -0.000010   0.000001  -0.000172  -0.000001  -0.034816
              13         14         15
     1  C    0.003601   0.023197  -0.005454
     2  C    0.000387  -0.001142  -0.000133
     3  C   -0.000757  -0.000060   0.000043
     4  C    0.004211   0.001279  -0.000213
     5  C    0.007274  -0.003185   0.001247
     6  C   -0.196786  -0.161366   0.027567
     7  H    0.000174   0.010318  -0.000646
     8  H    0.000012  -0.000097  -0.000010
     9  H   -0.000006  -0.000004   0.000001
    10  H    0.014659   0.000821  -0.000172
    11  O    0.000016   0.000001  -0.000001
    12  C    0.707898   0.405061  -0.034816
    13  O    7.929289  -0.093489   0.006223
    14  O   -0.093489   7.965678   0.269189
    15  H    0.006223   0.269189   0.445969
 Mulliken charges:
               1
     1  C   -0.262416
     2  C   -0.047122
     3  C   -0.232530
     4  C    0.291842
     5  C   -0.334119
     6  C    0.099457
     7  H    0.067434
     8  H    0.043947
     9  H    0.032600
    10  H    0.070699
    11  O   -0.534861
    12  C    0.312772
    13  O   -0.382707
    14  O   -0.416203
    15  H    0.291207
 Sum of Mulliken charges =  -1.00000
 Mulliken charges with hydrogens summed into heavy atoms:
               1
     1  C   -0.194982
     2  C   -0.003176
     3  C   -0.199930
     4  C    0.291842
     5  C   -0.263420
     6  C    0.099457
    11  O   -0.534861
    12  C    0.312772
    13  O   -0.382707
    14  O   -0.124996
 Electronic spatial extent (au):  <R**2>=           1531.8580
 Charge=             -1.0000 electrons
 Dipole moment (field-independent basis, Debye):
    X=             -5.5913    Y=              4.3382    Z=              0.6761  Tot=              7.1091
 Quadrupole moment (field-independent basis, Debye-Ang):
   XX=            -82.9311   YY=            -73.9624   ZZ=            -61.5837
   XY=              6.9625   XZ=             -3.1252   YZ=              0.3427
 Traceless Quadrupole moment (field-independent basis, Debye-Ang):
   XX=            -10.1054   YY=             -1.1367   ZZ=             11.2420
   XY=              6.9625   XZ=             -3.1252   YZ=              0.3427
 Octapole moment (field-independent basis, Debye-Ang**2):
  XXX=            -93.1577  YYY=              8.3357  ZZZ=              0.3967  XYY=            -11.0627
  XXY=             44.1366  XXZ=             11.9530  XZZ=            -10.3122  YZZ=             -5.7200
  YYZ=             -0.0125  XYZ=             -1.0982
 Hexadecapole moment (field-independent basis, Debye-Ang**3):
 XXXX=          -1440.9700 YYYY=           -579.3451 ZZZZ=            -69.4230 XXXY=             57.6335
 XXXZ=            -49.2778 YYYX=             10.0565 YYYZ=              0.2361 ZZZX=             -1.8771
 ZZZY=              0.3424 XXYY=           -419.8130 XXZZ=           -242.9808 YYZZ=           -111.1942
 XXYZ=              5.8817 YYXZ=             -1.0215 ZZXY=             -5.0239
 N-N= 4.747024867292D+02 E-N=-2.122414957483D+03  KE= 4.935400344499D+02
   1 Symmetry operations used in ECPInt.
 ECPInt:  NShTT=    8515 NPrTT=   26800 LenC2=    8135 LenP2D=   19883.
 LDataN:  DoStor=T MaxTD1= 7 Len=  274
 Calling FoFJK, ICntrl=      2127 FMM=F ISym2X=0 I1Cent= 0 IOpClX= 0 NMat=1 NMatS=1 NMatT=0.
 ***** Axes restored to original set *****
 -------------------------------------------------------------------
 Center     Atomic                   Forces (Hartrees/Bohr)
 Number     Number              X              Y              Z
 -------------------------------------------------------------------
      1        6           0.007437567   -0.010777266   -0.000209717
      2        6          -0.015590330   -0.019043319    0.000606699
      3        6           0.010700923   -0.011744009   -0.000120081
      4        6          -0.001783583    0.046661938   -0.000841296
      5        6          -0.015843020   -0.003222939    0.000904797
      6        6          -0.014670471   -0.058349587    0.003333343
      7        1          -0.000610825   -0.008484750   -0.000036598
      8        1           0.009178663   -0.007765850   -0.000116062
      9        1           0.005248764    0.009521580   -0.000224918
     10        1          -0.004582085    0.006726688    0.000155553
     11        8          -0.000815891    0.022466299   -0.000172996
     12        6          -0.042310615    0.036522150   -0.000238388
     13        8           0.052016135   -0.044482744   -0.004185272
     14        8           0.021600328    0.035288655   -0.001326153
     15        1          -0.009975559    0.006683155    0.002471089
 -------------------------------------------------------------------
 Cartesian Forces:  Max     0.058349587 RMS     0.019833357

 GradGradGradGradGradGradGradGradGradGradGradGradGradGradGradGradGradGrad
 Berny optimization.
 FormGI is forming the generalized inverse of G from B-inverse, IUseBI=4.
 Internal  Forces:  Max     0.067021062 RMS     0.015649994
 Search for a local minimum.
 Step number   1 out of a maximum of   77
 All quantities printed in internal units (Hartrees-Bohrs-Radians)
 Mixed Optimization -- RFO/linear search
 Second derivative matrix not updated -- first step.
 ITU=  0
     Eigenvalues ---    0.00237   0.00590   0.01295   0.01700   0.02070
     Eigenvalues ---    0.02070   0.02070   0.02274   0.02311   0.02376
     Eigenvalues ---    0.02464   0.02473   0.16000   0.16000   0.16000
     Eigenvalues ---    0.16000   0.16000   0.22000   0.23472   0.23494
     Eigenvalues ---    0.25000   0.25000   0.25000   0.25000   0.28519
     Eigenvalues ---    0.37230   0.37230   0.37230   0.37230   0.40989
     Eigenvalues ---    0.41362   0.43364   0.45389   0.45389   0.50975
     Eigenvalues ---    0.53930   0.55473   0.80209   0.80209
 RFO step:  Lambda=-3.72686621D-02 EMin= 2.36824165D-03
 Linear search not attempted -- first point.
 Maximum step size (   0.300) exceeded in Quadratic search.
    -- Step size scaled by   0.978
 Iteration  1 RMS(Cart)=  0.06638566 RMS(Int)=  0.00212477
 Iteration  2 RMS(Cart)=  0.00242237 RMS(Int)=  0.00022173
 Iteration  3 RMS(Cart)=  0.00001000 RMS(Int)=  0.00022162
 Iteration  4 RMS(Cart)=  0.00000000 RMS(Int)=  0.00022162
 Variable       Old X    -DE/DX   Delta X   Delta X   Delta X     New X
                                 (Linear)    (Quad)   (Total)
    R1        2.64826  -0.00274   0.00000  -0.00763  -0.00801   2.64026
    R2        2.64826   0.00473   0.00000   0.00781   0.00745   2.65571
    R3        2.02201   0.00847   0.00000   0.02021   0.02021   2.04222
    R4        2.56096   0.03440   0.00000   0.05785   0.05783   2.61879
    R5        2.02201   0.01178   0.00000   0.02812   0.02812   2.05013
    R6        2.64826   0.03276   0.00000   0.06682   0.06718   2.71544
    R7        2.02201   0.00944   0.00000   0.02255   0.02255   2.04456
    R8        2.64826   0.02956   0.00000   0.06105   0.06142   2.70968
    R9        2.37803   0.02248   0.00000   0.02619   0.02619   2.40422
   R10        2.56096   0.03616   0.00000   0.06183   0.06184   2.62279
   R11        2.02201   0.00725   0.00000   0.01730   0.01730   2.03931
   R12        2.91018  -0.03600   0.00000  -0.10917  -0.10917   2.80101
   R13        2.37803  -0.06702   0.00000  -0.07808  -0.07808   2.29995
   R14        2.70231  -0.04166   0.00000  -0.09110  -0.09110   2.61120
   R15        1.81414   0.00466   0.00000   0.00770   0.00770   1.82184
    A1        2.09440  -0.00850   0.00000  -0.04058  -0.04136   2.05304
    A2        2.09440   0.00508   0.00000   0.02438   0.02477   2.11916
    A3        2.09440   0.00343   0.00000   0.01620   0.01659   2.11098
    A4        2.09440   0.00791   0.00000   0.02378   0.02338   2.11778
    A5        2.09440  -0.00640   0.00000  -0.02403  -0.02384   2.07056
    A6        2.09440  -0.00150   0.00000   0.00025   0.00045   2.09485
    A7        2.09440   0.01087   0.00000   0.04217   0.04253   2.13692
    A8        2.09440   0.00002   0.00000   0.00594   0.00576   2.10016
    A9        2.09440  -0.01089   0.00000  -0.04811  -0.04829   2.04611
   A10        2.09440  -0.02734   0.00000  -0.08748  -0.08669   2.00771
   A11        2.09440   0.01399   0.00000   0.04481   0.04442   2.13881
   A12        2.09440   0.01336   0.00000   0.04266   0.04227   2.13666
   A13        2.09440   0.00582   0.00000   0.02637   0.02676   2.12116
   A14        2.09440  -0.00666   0.00000  -0.03178  -0.03197   2.06242
   A15        2.09440   0.00084   0.00000   0.00540   0.00521   2.09960
   A16        2.09440   0.01125   0.00000   0.03573   0.03537   2.12977
   A17        2.09440  -0.00527   0.00000  -0.01663  -0.01645   2.07794
   A18        2.09440  -0.00599   0.00000  -0.01910  -0.01892   2.07548
   A19        2.09440   0.02829   0.00000   0.09630   0.09629   2.19069
   A20        2.09440  -0.02309   0.00000  -0.07861  -0.07862   2.01578
   A21        2.09440  -0.00520   0.00000  -0.01768  -0.01769   2.07671
   A22        1.91063  -0.01627   0.00000  -0.08066  -0.08066   1.82997
    D1       -0.00000  -0.00005   0.00000  -0.00085  -0.00086  -0.00086
    D2       -3.14159   0.00001   0.00000   0.00012   0.00010  -3.14149
    D3        3.14159  -0.00014   0.00000  -0.00229  -0.00228   3.13931
    D4       -0.00000  -0.00008   0.00000  -0.00132  -0.00132  -0.00132
    D5       -0.00000  -0.00003   0.00000  -0.00040  -0.00037  -0.00037
    D6       -3.14159  -0.00012   0.00000  -0.00204  -0.00201   3.13958
    D7       -3.14159   0.00006   0.00000   0.00104   0.00105  -3.14054
    D8        0.00000  -0.00003   0.00000  -0.00060  -0.00059  -0.00059
    D9        0.00000   0.00004   0.00000   0.00063   0.00061   0.00061
   D10        3.14159   0.00004   0.00000   0.00064   0.00064  -3.14095
   D11       -3.14159  -0.00002   0.00000  -0.00035  -0.00036   3.14123
   D12       -0.00000  -0.00002   0.00000  -0.00033  -0.00033  -0.00034
   D13       -0.00000   0.00005   0.00000   0.00081   0.00081   0.00081
   D14       -3.14159  -0.00004   0.00000  -0.00065  -0.00063   3.14096
   D15       -3.14159   0.00005   0.00000   0.00079   0.00078  -3.14081
   D16        0.00000  -0.00004   0.00000  -0.00067  -0.00066  -0.00066
   D17       -0.00000  -0.00013   0.00000  -0.00206  -0.00201  -0.00201
   D18       -3.14159  -0.00006   0.00000  -0.00087  -0.00083   3.14076
   D19        3.14159  -0.00004   0.00000  -0.00060  -0.00058   3.14101
   D20       -0.00000   0.00003   0.00000   0.00059   0.00060   0.00060
   D21        0.00000   0.00012   0.00000   0.00183   0.00187   0.00187
   D22        3.14159   0.00021   0.00000   0.00347   0.00351  -3.13808
   D23        3.14159   0.00005   0.00000   0.00065   0.00067  -3.14093
   D24       -0.00000   0.00014   0.00000   0.00228   0.00231   0.00230
   D25        3.14159   0.00057   0.00000   0.01341   0.01345  -3.12815
   D26       -0.00000   0.00031   0.00000   0.00767   0.00758   0.00758
   D27        0.00000   0.00047   0.00000   0.01177   0.01186   0.01186
   D28       -3.14159   0.00022   0.00000   0.00603   0.00599  -3.13560
   D29       -2.61799  -0.00580   0.00000  -0.11258  -0.11272  -2.73072
   D30        0.52360  -0.00606   0.00000  -0.11832  -0.11818   0.40542
         Item               Value     Threshold  Converged?
 Maximum Force            0.067021     0.000450     NO 
 RMS     Force            0.015650     0.000300     NO 
 Maximum Displacement     0.225581     0.001800     NO 
 RMS     Displacement     0.066623     0.001200     NO 
 Predicted change in Energy=-2.079423D-02
 GradGradGradGradGradGradGradGradGradGradGradGradGradGradGradGradGradGrad

                          Input orientation:                          
 ---------------------------------------------------------------------
 Center     Atomic      Atomic             Coordinates (Angstroms)
 Number     Number       Type             X           Y           Z
 ---------------------------------------------------------------------
      1          6           0        0.013497   -1.828180    0.018007
      2          6           0        1.196971   -1.086179   -0.011816
      3          6           0        1.178888    0.299475   -0.021128
      4          6           0       -0.043550    1.054478   -0.000220
      5          6           0       -1.242019    0.267902    0.032015
      6          6           0       -1.199806   -1.119359    0.039374
      7          1           0        0.026058   -2.908792    0.023195
      8          1           0        2.143039   -1.616871   -0.028714
      9          1           0        2.105313    0.857820   -0.044913
     10          1           0       -2.189677    0.783857    0.049549
     11          8           0       -0.062540    2.326572   -0.008044
     12          6           0       -2.474602   -1.875036    0.068620
     13          8           0       -3.587963   -1.383443    0.075623
     14          8           0       -2.350126   -3.251145    0.081789
     15          1           0       -3.184698   -3.578133   -0.273195
 ---------------------------------------------------------------------
                    Distance matrix (angstroms):
                    1          2          3          4          5
     1  C    0.000000
     2  C    1.397163   0.000000
     3  C    2.426229   1.385804   0.000000
     4  C    2.883280   2.474155   1.436949   0.000000
     5  C    2.443374   2.790005   2.421696   1.433900   0.000000
     6  C    1.405343   2.397553   2.770368   2.462533   1.387923
     7  H    1.080697   2.166605   3.409393   3.963950   3.420450
     8  H    2.140509   1.084879   2.145234   3.452259   3.874877
     9  H    3.405032   2.145999   1.081932   2.158306   3.399787
    10  H    3.417266   3.869133   3.403947   2.163695   1.079154
    11  O    4.155529   3.637754   2.377064   1.272259   2.372951
    12  C    2.489055   3.756223   4.252593   3.807468   2.472405
    13  O    3.629273   4.794956   5.056129   4.302566   2.869197
    14  O    2.759640   4.156649   5.007139   4.885224   3.689725
    15  H    3.657265   5.047492   5.842967   5.603786   4.319622
                    6          7          8          9         10
     6  C    0.000000
     7  H    2.169118   0.000000
     8  H    3.380350   2.480596   0.000000
     9  H    3.852292   4.302941   2.475031   0.000000
    10  H    2.145269   4.306487   4.953993   4.296665   0.000000
    11  O    3.629058   5.236206   4.518379   2.618812   2.628307
    12  C    1.482231   2.706292   4.625876   5.334512   2.674184
    13  O    2.402986   3.923084   5.736702   6.119736   2.579354
    14  O    2.422714   2.401435   4.782425   6.062226   4.038319
    15  H    3.175384   3.293148   5.682526   6.907532   4.485664
                   11         12         13         14         15
    11  O    0.000000
    12  C    4.845352   0.000000
    13  O    5.118575   1.217081   0.000000
    14  O    6.029266   1.381790   2.240667   0.000000
    15  H    6.684588   1.876596   2.258531   0.964077   0.000000
 Stoichiometry    C7H5O3(1-)
 Framework group  C1[X(C7H5O3)]
 Deg. of freedom    39
 Full point group                 C1      NOp   1
 Largest Abelian subgroup         C1      NOp   1
 Largest concise Abelian subgroup C1      NOp   1
                         Standard orientation:                         
 ---------------------------------------------------------------------
 Center     Atomic      Atomic             Coordinates (Angstroms)
 Number     Number       Type             X           Y           Z
 ---------------------------------------------------------------------
      1          6           0       -0.182323    1.435387   -0.006357
      2          6           0        1.168718    1.791327    0.001359
      3          6           0        2.167230    0.830390    0.006589
      4          6           0        1.881636   -0.577889    0.003702
      5          6           0        0.487791   -0.914299   -0.006035
      6          6           0       -0.495363    0.065356   -0.009710
      7          1           0       -0.962044    2.183676   -0.008336
      8          1           0        1.428866    2.844550    0.004141
      9          1           0        3.208424    1.124412    0.013140
     10          1           0        0.215797   -1.958608   -0.009380
     11          8           0        2.796671   -1.461823    0.007818
     12          6           0       -1.918828   -0.347831   -0.015282
     13          8           0       -2.321772   -1.496230   -0.005254
     14          8           0       -2.837665    0.684138   -0.026174
     15          1           0       -3.642081    0.302647    0.343724
 ---------------------------------------------------------------------
 Rotational constants (GHZ):           2.7668122           0.9487028           0.7067296
 Standard basis: def2TZVP (5D, 7F)
 There are   390 symmetry adapted cartesian basis functions of A   symmetry.
 There are   340 symmetry adapted basis functions of A   symmetry.
   340 basis functions,   550 primitive gaussians,   390 cartesian basis functions
    36 alpha electrons       36 beta electrons
       nuclear repulsion energy       475.7636240697 Hartrees.
 NAtoms=   15 NActive=   15 NUniq=   15 SFac= 1.00D+00 NAtFMM=   60 NAOKFM=F Big=F
 Integral buffers will be    131072 words long.
 Raffenetti 2 integral format.
 Two-electron integral symmetry is turned on.
 One-electron integrals computed using PRISM.
   1 Symmetry operations used in ECPInt.
 ECPInt:  NShTT=    8515 NPrTT=   26800 LenC2=    8139 LenP2D=   19906.
 LDataN:  DoStor=T MaxTD1= 6 Len=  172
 NBasis=   340 RedAO= T EigKep=  1.13D-05  NBF=   340
 NBsUse=   340 1.00D-06 EigRej= -1.00D+00 NBFU=   340
 Initial guess from the checkpoint file:  "C6H5O-.chk"
 B after Tr=    -0.000000   -0.000000    0.000000
         Rot=    0.999944   -0.000278   -0.000090   -0.010565 Ang=  -1.21 deg.
 ExpMin= 9.52D-02 ExpMax= 2.70D+04 ExpMxC= 9.22D+02 IAcc=2 IRadAn=         4 AccDes= 0.00D+00
 Harris functional with IExCor=  402 and IRadAn=       4 diagonalized for initial guess.
 HarFok:  IExCor=  402 AccDes= 0.00D+00 IRadAn=         4 IDoV= 1 UseB2=F ITyADJ=14
 ICtDFT=  3500011 ScaDFX=  1.000000  1.000000  1.000000  1.000000
 FoFCou: FMM=F IPFlag=           0 FMFlag=      100000 FMFlg1=           0
         NFxFlg=           0 DoJE=T BraDBF=F KetDBF=T FulRan=T
         wScrn=  0.000000 ICntrl=       500 IOpCl=  0 I1Cent=   200000004 NGrid=           0
         NMat0=    1 NMatS0=      1 NMatT0=    0 NMatD0=    1 NMtDS0=    0 NMtDT0=    0
 Petite list used in FoFCou.
 Requested convergence on RMS density matrix=1.00D-08 within 128 cycles.
 Requested convergence on MAX density matrix=1.00D-06.
 Requested convergence on             energy=1.00D-06.
 No special actions if energy rises.
 Integral accuracy reduced to 1.0D-05 until final iterations.
 Initial convergence to 1.0D-05 achieved.  Increase integral accuracy.
 SCF Done:  E(RB3LYP) =  -495.690114939     A.U. after   14 cycles
            NFock= 14  Conv=0.44D-08     -V/T= 2.0046
   1 Symmetry operations used in ECPInt.
 ECPInt:  NShTT=    8515 NPrTT=   26800 LenC2=    8139 LenP2D=   19906.
 LDataN:  DoStor=T MaxTD1= 7 Len=  274
 Calling FoFJK, ICntrl=      2127 FMM=F ISym2X=0 I1Cent= 0 IOpClX= 0 NMat=1 NMatS=1 NMatT=0.
 ***** Axes restored to original set *****
 -------------------------------------------------------------------
 Center     Atomic                   Forces (Hartrees/Bohr)
 Number     Number              X              Y              Z
 -------------------------------------------------------------------
      1        6           0.005477728    0.001641118   -0.000236724
      2        6          -0.004551448   -0.000156184    0.000194491
      3        6           0.000816500   -0.007288883    0.000035790
      4        6          -0.000780943    0.019645010   -0.000210805
      5        6           0.002534851   -0.003477361    0.000333951
      6        6          -0.005335738   -0.013552783    0.002574714
      7        1          -0.000296758    0.001069056   -0.000179139
      8        1           0.001966949    0.000326656   -0.000030770
      9        1           0.001384513    0.001810489   -0.000064777
     10        1          -0.001654037    0.000458642    0.000106450
     11        8           0.000587147   -0.008955083   -0.000000377
     12        6          -0.005509013    0.010750212    0.001808998
     13        8           0.003320468   -0.005219450   -0.003396422
     14        8           0.007078521    0.003518599   -0.006465618
     15        1          -0.005038740   -0.000570038    0.005530238
 -------------------------------------------------------------------
 Cartesian Forces:  Max     0.019645010 RMS     0.005131233

 GradGradGradGradGradGradGradGradGradGradGradGradGradGradGradGradGradGrad
 Berny optimization.
 Using GEDIIS/GDIIS optimizer.
 FormGI is forming the generalized inverse of G from B-inverse, IUseBI=4.
 Internal  Forces:  Max     0.008962946 RMS     0.002613501
 Search for a local minimum.
 Step number   2 out of a maximum of   77
 All quantities printed in internal units (Hartrees-Bohrs-Radians)
 Mixed Optimization -- RFO/linear search
 Update second derivatives using D2CorX and points    1    2
 DE= -2.10D-02 DEPred=-2.08D-02 R= 1.01D+00
 TightC=F SS=  1.41D+00  RLast= 3.42D-01 DXNew= 5.0454D-01 1.0255D+00
 Trust test= 1.01D+00 RLast= 3.42D-01 DXMaxT set to 5.05D-01
 ITU=  1  0
 Use linear search instead of GDIIS.
     Eigenvalues ---    0.00237   0.00557   0.01261   0.01726   0.02070
     Eigenvalues ---    0.02070   0.02070   0.02283   0.02323   0.02381
     Eigenvalues ---    0.02470   0.02482   0.15954   0.16000   0.16000
     Eigenvalues ---    0.16000   0.16279   0.21950   0.22553   0.24005
     Eigenvalues ---    0.24335   0.25000   0.25000   0.25510   0.28786
     Eigenvalues ---    0.37090   0.37230   0.37230   0.37339   0.41303
     Eigenvalues ---    0.41526   0.43221   0.45195   0.45424   0.51014
     Eigenvalues ---    0.54635   0.55546   0.78754   0.83425
 RFO step:  Lambda=-4.88811649D-03 EMin= 2.36830789D-03
 Quartic linear search produced a step of  0.14559.
 Iteration  1 RMS(Cart)=  0.04832737 RMS(Int)=  0.02692707
 Iteration  2 RMS(Cart)=  0.02912175 RMS(Int)=  0.00238963
 Iteration  3 RMS(Cart)=  0.00231442 RMS(Int)=  0.00004358
 Iteration  4 RMS(Cart)=  0.00000685 RMS(Int)=  0.00004337
 Iteration  5 RMS(Cart)=  0.00000000 RMS(Int)=  0.00004337
 Variable       Old X    -DE/DX   Delta X   Delta X   Delta X     New X
                                 (Linear)    (Quad)   (Total)
    R1        2.64026  -0.00165  -0.00117  -0.00371  -0.00495   2.63531
    R2        2.65571   0.00204   0.00108   0.00419   0.00521   2.66092
    R3        2.04222  -0.00107   0.00294  -0.00540  -0.00245   2.03977
    R4        2.61879  -0.00076   0.00842  -0.00778   0.00064   2.61943
    R5        2.05013   0.00156   0.00409   0.00165   0.00574   2.05587
    R6        2.71544   0.00351   0.00978   0.00173   0.01158   2.72702
    R7        2.04456   0.00212   0.00328   0.00395   0.00723   2.05178
    R8        2.70968   0.00411   0.00894   0.00425   0.01326   2.72294
    R9        2.40422  -0.00896   0.00381  -0.01512  -0.01130   2.39292
   R10        2.62279   0.00288   0.00900   0.00006   0.00906   2.63186
   R11        2.03931   0.00167   0.00252   0.00316   0.00568   2.04499
   R12        2.80101  -0.00424  -0.01589  -0.00417  -0.02006   2.78095
   R13        2.29995  -0.00516  -0.01137   0.00031  -0.01106   2.28889
   R14        2.61120  -0.00276  -0.01326   0.00208  -0.01118   2.60002
   R15        1.82184   0.00252   0.00112   0.00432   0.00544   1.82729
    A1        2.05304   0.00052  -0.00602   0.00597  -0.00020   2.05284
    A2        2.11916   0.00003   0.00361  -0.00156   0.00212   2.12128
    A3        2.11098  -0.00055   0.00242  -0.00441  -0.00193   2.10906
    A4        2.11778   0.00180   0.00340   0.00383   0.00716   2.12494
    A5        2.07056   0.00038  -0.00347   0.00848   0.00505   2.07561
    A6        2.09485  -0.00218   0.00007  -0.01232  -0.01221   2.08264
    A7        2.13692   0.00148   0.00619   0.00089   0.00715   2.14407
    A8        2.10016   0.00011   0.00084   0.00180   0.00261   2.10277
    A9        2.04611  -0.00159  -0.00703  -0.00270  -0.00976   2.03635
   A10        2.00771  -0.00447  -0.01262  -0.00940  -0.02187   1.98584
   A11        2.13881   0.00168   0.00647   0.00214   0.00853   2.14734
   A12        2.13666   0.00278   0.00615   0.00726   0.01334   2.15000
   A13        2.12116   0.00343   0.00390   0.01507   0.01904   2.14020
   A14        2.06242  -0.00132  -0.00465  -0.00233  -0.00702   2.05540
   A15        2.09960  -0.00211   0.00076  -0.01274  -0.01202   2.08759
   A16        2.12977  -0.00276   0.00515  -0.01637  -0.01129   2.11848
   A17        2.07794   0.00589  -0.00240   0.02807   0.02571   2.10365
   A18        2.07548  -0.00313  -0.00275  -0.01170  -0.01442   2.06106
   A19        2.19069   0.00648   0.01402   0.01751   0.03151   2.22220
   A20        2.01578  -0.00517  -0.01145  -0.01376  -0.02521   1.99056
   A21        2.07671  -0.00130  -0.00258  -0.00370  -0.00629   2.07042
   A22        1.82997  -0.00091  -0.01174   0.00456  -0.00719   1.82279
    D1       -0.00086  -0.00005  -0.00012  -0.00172  -0.00184  -0.00270
    D2       -3.14149   0.00001   0.00002   0.00017   0.00019  -3.14130
    D3        3.13931  -0.00012  -0.00033  -0.00413  -0.00446   3.13485
    D4       -0.00132  -0.00006  -0.00019  -0.00224  -0.00243  -0.00375
    D5       -0.00037   0.00000  -0.00005   0.00030   0.00027  -0.00010
    D6        3.13958  -0.00000  -0.00029   0.00089   0.00062   3.14020
    D7       -3.14054   0.00007   0.00015   0.00270   0.00286  -3.13769
    D8       -0.00059   0.00007  -0.00009   0.00329   0.00321   0.00262
    D9        0.00061   0.00003   0.00009   0.00111   0.00119   0.00180
   D10       -3.14095   0.00005   0.00009   0.00178   0.00186  -3.13909
   D11        3.14123  -0.00002  -0.00005  -0.00079  -0.00084   3.14039
   D12       -0.00034  -0.00001  -0.00005  -0.00013  -0.00017  -0.00050
   D13        0.00081   0.00003   0.00012   0.00088   0.00099   0.00180
   D14        3.14096   0.00001  -0.00009   0.00077   0.00068  -3.14154
   D15       -3.14081   0.00001   0.00011   0.00023   0.00034  -3.14047
   D16       -0.00066  -0.00001  -0.00010   0.00012   0.00003  -0.00063
   D17       -0.00201  -0.00007  -0.00029  -0.00230  -0.00259  -0.00460
   D18        3.14076  -0.00004  -0.00012  -0.00150  -0.00161   3.13915
   D19        3.14101  -0.00006  -0.00008  -0.00219  -0.00227   3.13874
   D20        0.00060  -0.00003   0.00009  -0.00139  -0.00130  -0.00070
   D21        0.00187   0.00006   0.00027   0.00178   0.00207   0.00394
   D22       -3.13808   0.00006   0.00051   0.00116   0.00169  -3.13640
   D23       -3.14093   0.00003   0.00010   0.00097   0.00108  -3.13985
   D24        0.00230   0.00003   0.00034   0.00035   0.00069   0.00300
   D25       -3.12815   0.00034   0.00196   0.03961   0.04154  -3.08661
   D26        0.00758   0.00038   0.00110   0.04978   0.05091   0.05849
   D27        0.01186   0.00034   0.00173   0.04018   0.04188   0.05374
   D28       -3.13560   0.00038   0.00087   0.05035   0.05125  -3.08435
   D29       -2.73072  -0.00624  -0.01641  -0.33958  -0.35594  -3.08665
   D30        0.40542  -0.00618  -0.01721  -0.33004  -0.34730   0.05811
         Item               Value     Threshold  Converged?
 Maximum Force            0.008963     0.000450     NO 
 RMS     Force            0.002614     0.000300     NO 
 Maximum Displacement     0.487616     0.001800     NO 
 RMS     Displacement     0.075269     0.001200     NO 
 Predicted change in Energy=-3.650132D-03
 GradGradGradGradGradGradGradGradGradGradGradGradGradGradGradGradGradGrad

                          Input orientation:                          
 ---------------------------------------------------------------------
 Center     Atomic      Atomic             Coordinates (Angstroms)
 Number     Number       Type             X           Y           Z
 ---------------------------------------------------------------------
      1          6           0        0.025469   -1.836163   -0.021551
      2          6           0        1.200248   -1.084737   -0.018687
      3          6           0        1.179624    0.301106    0.001416
      4          6           0       -0.044216    1.065452    0.022899
      5          6           0       -1.235535    0.254895    0.023830
      6          6           0       -1.196640   -1.137080    0.000168
      7          1           0        0.045423   -2.915155   -0.043431
      8          1           0        2.156521   -1.603221   -0.035486
      9          1           0        2.107000    0.865766    0.000926
     10          1           0       -2.190896    0.762867    0.041801
     11          8           0       -0.067199    2.331388    0.041242
     12          6           0       -2.475022   -1.866034   -0.003234
     13          8           0       -3.589714   -1.393561   -0.039323
     14          8           0       -2.340341   -3.234460    0.044731
     15          1           0       -3.245939   -3.568096   -0.015160
 ---------------------------------------------------------------------
                    Distance matrix (angstroms):
                    1          2          3          4          5
     1  C    0.000000
     2  C    1.394544   0.000000
     3  C    2.429098   1.386142   0.000000
     4  C    2.902791   2.484699   1.443076   0.000000
     5  C    2.442277   2.780190   2.415704   1.440918   0.000000
     6  C    1.408098   2.397533   2.777590   2.485909   1.392719
     7  H    1.079398   2.164408   3.410682   3.982168   3.419736
     8  H    2.143790   1.087919   2.140596   3.459547   3.868095
     9  H    3.410820   2.151057   1.085757   2.160576   3.397974
    10  H    3.416321   3.862273   3.402243   2.167983   1.082161
    11  O    4.169053   3.644162   2.382897   1.266277   2.382673
    12  C    2.500737   3.757429   4.248876   3.808295   2.456706
    13  O    3.642220   4.799951   5.061634   4.315226   2.874640
    14  O    2.748942   4.142595   4.989213   4.874618   3.660141
    15  H    3.701587   5.092706   5.878486   5.632250   4.319549
                    6          7          8          9         10
     6  C    0.000000
     7  H    2.169371   0.000000
     8  H    3.385594   2.485552   0.000000
     9  H    3.863345   4.306672   2.469752   0.000000
    10  H    2.144779   4.305373   4.950190   4.299322   0.000000
    11  O    3.647957   5.248434   4.520173   2.622368   2.640141
    12  C    1.471613   2.730369   4.639106   5.334574   2.644594
    13  O    2.407103   3.940747   5.750060   6.128518   2.571665
    14  O    2.389359   2.408651   4.784259   6.049182   4.000121
    15  H    3.179575   3.355622   5.748714   6.950780   4.457982
                   11         12         13         14         15
    11  O    0.000000
    12  C    4.839209   0.000000
    13  O    5.127363   1.211227   0.000000
    14  O    6.012141   1.375874   2.226411   0.000000
    15  H    6.701602   1.868547   2.201673   0.966958   0.000000
 Stoichiometry    C7H5O3(1-)
 Framework group  C1[X(C7H5O3)]
 Deg. of freedom    39
 Full point group                 C1      NOp   1
 Largest Abelian subgroup         C1      NOp   1
 Largest concise Abelian subgroup C1      NOp   1
                         Standard orientation:                         
 ---------------------------------------------------------------------
 Center     Atomic      Atomic             Coordinates (Angstroms)
 Number     Number       Type             X           Y           Z
 ---------------------------------------------------------------------
      1          6           0       -0.179085    1.448525    0.016655
      2          6           0        1.173190    1.789269    0.016361
      3          6           0        2.168479    0.824553    0.005877
      4          6           0        1.886655   -0.590673   -0.007593
      5          6           0        0.479993   -0.902972   -0.011465
      6          6           0       -0.507256    0.079276    0.002494
      7          1           0       -0.951351    2.202514    0.031036
      8          1           0        1.450758    2.841125    0.027443
      9          1           0        3.215191    1.113097    0.008198
     10          1           0        0.195398   -1.946968   -0.023794
     11          8           0        2.792990   -1.474937   -0.017140
     12          6           0       -1.914157   -0.352319    0.003713
     13          8           0       -2.333973   -1.487694    0.045553
     14          8           0       -2.818368    0.683102   -0.054004
     15          1           0       -3.682107    0.252509    0.005601
 ---------------------------------------------------------------------
 Rotational constants (GHZ):           2.7614684           0.9497465           0.7068846
 Standard basis: def2TZVP (5D, 7F)
 There are   390 symmetry adapted cartesian basis functions of A   symmetry.
 There are   340 symmetry adapted basis functions of A   symmetry.
   340 basis functions,   550 primitive gaussians,   390 cartesian basis functions
    36 alpha electrons       36 beta electrons
       nuclear repulsion energy       475.9836569288 Hartrees.
 NAtoms=   15 NActive=   15 NUniq=   15 SFac= 1.00D+00 NAtFMM=   60 NAOKFM=F Big=F
 Integral buffers will be    131072 words long.
 Raffenetti 2 integral format.
 Two-electron integral symmetry is turned on.
 One-electron integrals computed using PRISM.
   1 Symmetry operations used in ECPInt.
 ECPInt:  NShTT=    8515 NPrTT=   26800 LenC2=    8139 LenP2D=   19905.
 LDataN:  DoStor=T MaxTD1= 6 Len=  172
 NBasis=   340 RedAO= T EigKep=  1.17D-05  NBF=   340
 NBsUse=   340 1.00D-06 EigRej= -1.00D+00 NBFU=   340
 Initial guess from the checkpoint file:  "C6H5O-.chk"
 B after Tr=    -0.000000    0.000000    0.000000
         Rot=    0.999999   -0.000072    0.000048    0.001339 Ang=  -0.15 deg.
 ExpMin= 9.52D-02 ExpMax= 2.70D+04 ExpMxC= 9.22D+02 IAcc=2 IRadAn=         4 AccDes= 0.00D+00
 Harris functional with IExCor=  402 and IRadAn=       4 diagonalized for initial guess.
 HarFok:  IExCor=  402 AccDes= 0.00D+00 IRadAn=         4 IDoV= 1 UseB2=F ITyADJ=14
 ICtDFT=  3500011 ScaDFX=  1.000000  1.000000  1.000000  1.000000
 FoFCou: FMM=F IPFlag=           0 FMFlag=      100000 FMFlg1=           0
         NFxFlg=           0 DoJE=T BraDBF=F KetDBF=T FulRan=T
         wScrn=  0.000000 ICntrl=       500 IOpCl=  0 I1Cent=   200000004 NGrid=           0
         NMat0=    1 NMatS0=      1 NMatT0=    0 NMatD0=    1 NMtDS0=    0 NMtDT0=    0
 Petite list used in FoFCou.
 Requested convergence on RMS density matrix=1.00D-08 within 128 cycles.
 Requested convergence on MAX density matrix=1.00D-06.
 Requested convergence on             energy=1.00D-06.
 No special actions if energy rises.
 Integral accuracy reduced to 1.0D-05 until final iterations.
 Initial convergence to 1.0D-05 achieved.  Increase integral accuracy.
 SCF Done:  E(RB3LYP) =  -495.693477540     A.U. after   15 cycles
            NFock= 15  Conv=0.49D-08     -V/T= 2.0045
   1 Symmetry operations used in ECPInt.
 ECPInt:  NShTT=    8515 NPrTT=   26800 LenC2=    8139 LenP2D=   19905.
 LDataN:  DoStor=T MaxTD1= 7 Len=  274
 Calling FoFJK, ICntrl=      2127 FMM=F ISym2X=0 I1Cent= 0 IOpClX= 0 NMat=1 NMatS=1 NMatT=0.
 ***** Axes restored to original set *****
 -------------------------------------------------------------------
 Center     Atomic                   Forces (Hartrees/Bohr)
 Number     Number              X              Y              Z
 -------------------------------------------------------------------
      1        6           0.000851967    0.001111908    0.000163869
      2        6          -0.000914867    0.000635812   -0.000308530
      3        6           0.000345883   -0.001551878    0.000031586
      4        6           0.000108997    0.006059483    0.000375861
      5        6           0.001008313   -0.000624017   -0.000332662
      6        6           0.001032235   -0.000149806    0.000277769
      7        1           0.000071791   -0.000003058    0.000119196
      8        1          -0.000201088    0.000440136   -0.000016066
      9        1          -0.000037856   -0.000137558    0.000055438
     10        1          -0.000332094   -0.000170296   -0.000061413
     11        8          -0.000195660   -0.005509047   -0.000128619
     12        6           0.002377676   -0.001503102    0.000905502
     13        8          -0.004818047    0.002149255   -0.000673118
     14        8           0.001645540   -0.001142363   -0.001298408
     15        1          -0.000942789    0.000394532    0.000889595
 -------------------------------------------------------------------
 Cartesian Forces:  Max     0.006059483 RMS     0.001638323

 GradGradGradGradGradGradGradGradGradGradGradGradGradGradGradGradGradGrad
 Berny optimization.
 Using GEDIIS/GDIIS optimizer.
 FormGI is forming the generalized inverse of G from B-inverse, IUseBI=4.
 Internal  Forces:  Max     0.005506030 RMS     0.001042911
 Search for a local minimum.
 Step number   3 out of a maximum of   77
 All quantities printed in internal units (Hartrees-Bohrs-Radians)
 Mixed Optimization -- RFO/linear search
 Update second derivatives using D2CorX and points    2    3
 DE= -3.36D-03 DEPred=-3.65D-03 R= 9.21D-01
 TightC=F SS=  1.41D+00  RLast= 5.12D-01 DXNew= 8.4853D-01 1.5351D+00
 Trust test= 9.21D-01 RLast= 5.12D-01 DXMaxT set to 8.49D-01
 ITU=  1  1  0
 Use linear search instead of GDIIS.
     Eigenvalues ---    0.00241   0.00545   0.01548   0.01713   0.02070
     Eigenvalues ---    0.02070   0.02075   0.02284   0.02326   0.02381
     Eigenvalues ---    0.02470   0.02486   0.15819   0.16000   0.16000
     Eigenvalues ---    0.16024   0.16295   0.21386   0.22182   0.23992
     Eigenvalues ---    0.24263   0.25000   0.25025   0.25490   0.29013
     Eigenvalues ---    0.37082   0.37230   0.37238   0.37337   0.41357
     Eigenvalues ---    0.41431   0.43162   0.45192   0.45444   0.50989
     Eigenvalues ---    0.54715   0.55500   0.78700   0.83581
 RFO step:  Lambda=-2.20085761D-04 EMin= 2.41486107D-03
 Quartic linear search produced a step of  0.10417.
 Iteration  1 RMS(Cart)=  0.02728867 RMS(Int)=  0.00123085
 Iteration  2 RMS(Cart)=  0.00099249 RMS(Int)=  0.00009534
 Iteration  3 RMS(Cart)=  0.00000353 RMS(Int)=  0.00009531
 Iteration  4 RMS(Cart)=  0.00000000 RMS(Int)=  0.00009531
 Variable       Old X    -DE/DX   Delta X   Delta X   Delta X     New X
                                 (Linear)    (Quad)   (Total)
    R1        2.63531  -0.00075  -0.00052  -0.00161  -0.00212   2.63318
    R2        2.66092  -0.00017   0.00054  -0.00076  -0.00022   2.66070
    R3        2.03977   0.00000  -0.00026   0.00044   0.00019   2.03996
    R4        2.61943  -0.00141   0.00007  -0.00234  -0.00228   2.61715
    R5        2.05587  -0.00039   0.00060  -0.00128  -0.00068   2.05519
    R6        2.72702   0.00004   0.00121  -0.00005   0.00116   2.72818
    R7        2.05178  -0.00010   0.00075  -0.00062   0.00013   2.05191
    R8        2.72294  -0.00003   0.00138  -0.00034   0.00105   2.72399
    R9        2.39292  -0.00551  -0.00118  -0.00639  -0.00757   2.38535
   R10        2.63186  -0.00054   0.00094  -0.00107  -0.00012   2.63173
   R11        2.04499   0.00021   0.00059   0.00037   0.00097   2.04596
   R12        2.78095   0.00156  -0.00209   0.00633   0.00424   2.78519
   R13        2.28889   0.00529  -0.00115   0.00730   0.00614   2.29503
   R14        2.60002   0.00080  -0.00116   0.00198   0.00081   2.60084
   R15        1.82729   0.00069   0.00057   0.00103   0.00160   1.82888
    A1        2.05284   0.00012  -0.00002  -0.00023  -0.00026   2.05258
    A2        2.12128  -0.00013   0.00022  -0.00049  -0.00027   2.12101
    A3        2.10906   0.00001  -0.00020   0.00072   0.00053   2.10958
    A4        2.12494   0.00051   0.00075   0.00184   0.00257   2.12751
    A5        2.07561   0.00004   0.00053   0.00025   0.00078   2.07638
    A6        2.08264  -0.00056  -0.00127  -0.00207  -0.00335   2.07929
    A7        2.14407  -0.00008   0.00074  -0.00070   0.00004   2.14411
    A8        2.10277  -0.00006   0.00027  -0.00049  -0.00022   2.10255
    A9        2.03635   0.00014  -0.00102   0.00119   0.00018   2.03652
   A10        1.98584  -0.00048  -0.00228  -0.00129  -0.00357   1.98227
   A11        2.14734   0.00059   0.00089   0.00242   0.00330   2.15064
   A12        2.15000  -0.00011   0.00139  -0.00111   0.00027   2.15027
   A13        2.14020   0.00059   0.00198   0.00197   0.00395   2.14414
   A14        2.05540   0.00002  -0.00073   0.00071  -0.00002   2.05538
   A15        2.08759  -0.00061  -0.00125  -0.00267  -0.00393   2.08366
   A16        2.11848  -0.00066  -0.00118  -0.00154  -0.00272   2.11575
   A17        2.10365   0.00135   0.00268   0.00362   0.00630   2.10995
   A18        2.06106  -0.00068  -0.00150  -0.00208  -0.00358   2.05748
   A19        2.22220  -0.00004   0.00328  -0.00148   0.00135   2.22355
   A20        1.99056  -0.00018  -0.00263   0.00034  -0.00274   1.98782
   A21        2.07042   0.00022  -0.00066   0.00132   0.00021   2.07063
   A22        1.82279  -0.00118  -0.00075  -0.00865  -0.00940   1.81339
    D1       -0.00270   0.00013  -0.00019   0.00660   0.00641   0.00371
    D2       -3.14130   0.00003   0.00002   0.00178   0.00180  -3.13950
    D3        3.13485   0.00012  -0.00046   0.00638   0.00592   3.14077
    D4       -0.00375   0.00002  -0.00025   0.00157   0.00131  -0.00243
    D5       -0.00010  -0.00003   0.00003  -0.00192  -0.00190  -0.00200
    D6        3.14020  -0.00005   0.00006  -0.00300  -0.00294   3.13726
    D7       -3.13769  -0.00002   0.00030  -0.00171  -0.00141  -3.13910
    D8        0.00262  -0.00004   0.00033  -0.00279  -0.00246   0.00016
    D9        0.00180  -0.00010   0.00012  -0.00467  -0.00454  -0.00274
   D10       -3.13909  -0.00009   0.00019  -0.00438  -0.00419   3.13991
   D11        3.14039   0.00000  -0.00009   0.00017   0.00008   3.14047
   D12       -0.00050   0.00001  -0.00002   0.00045   0.00043  -0.00007
   D13        0.00180  -0.00003   0.00010  -0.00193  -0.00183  -0.00003
   D14       -3.14154   0.00006   0.00007   0.00288   0.00295  -3.13859
   D15       -3.14047  -0.00004   0.00004  -0.00221  -0.00217   3.14054
   D16       -0.00063   0.00005   0.00000   0.00260   0.00261   0.00199
   D17       -0.00460   0.00013  -0.00027   0.00660   0.00633   0.00173
   D18        3.13915   0.00007  -0.00017   0.00371   0.00354  -3.14050
   D19        3.13874   0.00004  -0.00024   0.00178   0.00155   3.14028
   D20       -0.00070  -0.00002  -0.00014  -0.00111  -0.00125  -0.00194
   D21        0.00394  -0.00010   0.00022  -0.00489  -0.00468  -0.00074
   D22       -3.13640  -0.00009   0.00018  -0.00384  -0.00367  -3.14007
   D23       -3.13985  -0.00004   0.00011  -0.00195  -0.00184   3.14150
   D24        0.00300  -0.00003   0.00007  -0.00090  -0.00083   0.00217
   D25       -3.08661   0.00003   0.00433  -0.04156  -0.03724  -3.12385
   D26        0.05849  -0.00026   0.00530  -0.09958  -0.09427  -0.03579
   D27        0.05374   0.00001   0.00436  -0.04261  -0.03825   0.01549
   D28       -3.08435  -0.00027   0.00534  -0.10063  -0.09528   3.10355
   D29       -3.08665  -0.00073  -0.03708   0.00248  -0.03461  -3.12127
   D30        0.05811  -0.00099  -0.03618  -0.05008  -0.08624  -0.02812
         Item               Value     Threshold  Converged?
 Maximum Force            0.005506     0.000450     NO 
 RMS     Force            0.001043     0.000300     NO 
 Maximum Displacement     0.151758     0.001800     NO 
 RMS     Displacement     0.027281     0.001200     NO 
 Predicted change in Energy=-1.527633D-04
 GradGradGradGradGradGradGradGradGradGradGradGradGradGradGradGradGradGrad

                          Input orientation:                          
 ---------------------------------------------------------------------
 Center     Atomic      Atomic             Coordinates (Angstroms)
 Number     Number       Type             X           Y           Z
 ---------------------------------------------------------------------
      1          6           0        0.030016   -1.837204   -0.002701
      2          6           0        1.201514   -1.082821   -0.013561
      3          6           0        1.180333    0.301919   -0.003594
      4          6           0       -0.044285    1.066246    0.015283
      5          6           0       -1.232845    0.250701    0.022617
      6          6           0       -1.193892   -1.141383    0.014387
      7          1           0        0.053528   -2.916411   -0.011320
      8          1           0        2.159391   -1.597629   -0.028813
      9          1           0        2.107628    0.866798   -0.010838
     10          1           0       -2.190661    0.755279    0.035677
     11          8           0       -0.071870    2.328203    0.021285
     12          6           0       -2.476782   -1.866921    0.021186
     13          8           0       -3.593814   -1.390277    0.018448
     14          8           0       -2.343485   -3.235579   -0.035576
     15          1           0       -3.255993   -3.557955   -0.042338
 ---------------------------------------------------------------------
                    Distance matrix (angstroms):
                    1          2          3          4          5
     1  C    0.000000
     2  C    1.393420   0.000000
     3  C    2.428801   1.384937   0.000000
     4  C    2.904456   2.484217   1.443690   0.000000
     5  C    2.440247   2.775913   2.413864   1.441473   0.000000
     6  C    1.407980   2.396285   2.778559   2.489021   1.392654
     7  H    1.079498   2.163315   3.409897   3.983947   3.418553
     8  H    2.142969   1.087561   2.137164   3.457508   3.863448
     9  H    3.410009   2.149898   1.085825   2.161294   3.396977
    10  H    3.413772   3.858482   3.401570   2.168882   1.082673
    11  O    4.166722   3.641127   2.382113   1.262273   2.379891
    12  C    2.507088   3.761102   4.251938   3.810584   2.455953
    13  O    3.651347   4.805281   5.065224   4.316674   2.875239
    14  O    2.755003   4.147514   4.993216   4.877972   3.659379
    15  H    3.709503   5.098675   5.880571   5.630420   4.313144
                    6          7          8          9         10
     6  C    0.000000
     7  H    2.169664   0.000000
     8  H    3.384455   2.484784   0.000000
     9  H    3.864384   4.304881   2.465036   0.000000
    10  H    2.142738   4.303475   4.946037   4.299987   0.000000
    11  O    3.646507   5.246215   4.515883   2.624300   2.638859
    12  C    1.473859   2.739517   4.644257   5.337702   2.637804
    13  O    2.412797   3.953868   5.757134   6.132021   2.563697
    14  O    2.389501   2.418290   4.791536   6.053306   3.994418
    15  H    3.177310   3.371271   5.759292   6.953263   4.443535
                   11         12         13         14         15
    11  O    0.000000
    12  C    4.835564   0.000000
    13  O    5.121639   1.214478   0.000000
    14  O    6.009920   1.376305   2.229660   0.000000
    15  H    6.692499   1.863008   2.194686   0.967803   0.000000
 Stoichiometry    C7H5O3(1-)
 Framework group  C1[X(C7H5O3)]
 Deg. of freedom    39
 Full point group                 C1      NOp   1
 Largest Abelian subgroup         C1      NOp   1
 Largest concise Abelian subgroup C1      NOp   1
                         Standard orientation:                         
 ---------------------------------------------------------------------
 Center     Atomic      Atomic             Coordinates (Angstroms)
 Number     Number       Type             X           Y           Z
 ---------------------------------------------------------------------
      1          6           0       -0.173551    1.452598   -0.011904
      2          6           0        1.179135    1.786884   -0.001187
      3          6           0        2.171631    0.820977    0.003976
      4          6           0        1.886940   -0.594363    0.002046
      5          6           0        0.478054   -0.899035   -0.005687
      6          6           0       -0.507580    0.084815   -0.012791
      7          1           0       -0.942255    2.210489   -0.015126
      8          1           0        1.462201    2.836957    0.001708
      9          1           0        3.218896    1.107696    0.010758
     10          1           0        0.187583   -1.942014   -0.006500
     11          8           0        2.785739   -1.480609    0.009890
     12          6           0       -1.915761   -0.350220   -0.018346
     13          8           0       -2.335878   -1.489610   -0.002538
     14          8           0       -2.819746    0.686768    0.022662
     15          1           0       -3.680550    0.244542    0.032403
 ---------------------------------------------------------------------
 Rotational constants (GHZ):           2.7574464           0.9498408           0.7065218
 Standard basis: def2TZVP (5D, 7F)
 There are   390 symmetry adapted cartesian basis functions of A   symmetry.
 There are   340 symmetry adapted basis functions of A   symmetry.
   340 basis functions,   550 primitive gaussians,   390 cartesian basis functions
    36 alpha electrons       36 beta electrons
       nuclear repulsion energy       475.9018146128 Hartrees.
 NAtoms=   15 NActive=   15 NUniq=   15 SFac= 1.00D+00 NAtFMM=   60 NAOKFM=F Big=F
 Integral buffers will be    131072 words long.
 Raffenetti 2 integral format.
 Two-electron integral symmetry is turned on.
 One-electron integrals computed using PRISM.
   1 Symmetry operations used in ECPInt.
 ECPInt:  NShTT=    8515 NPrTT=   26800 LenC2=    8138 LenP2D=   19905.
 LDataN:  DoStor=T MaxTD1= 6 Len=  172
 NBasis=   340 RedAO= T EigKep=  1.16D-05  NBF=   340
 NBsUse=   340 1.00D-06 EigRej= -1.00D+00 NBFU=   340
 Initial guess from the checkpoint file:  "C6H5O-.chk"
 B after Tr=     0.000000   -0.000000    0.000000
         Rot=    1.000000   -0.000015   -0.000004    0.000824 Ang=  -0.09 deg.
 ExpMin= 9.52D-02 ExpMax= 2.70D+04 ExpMxC= 9.22D+02 IAcc=2 IRadAn=         4 AccDes= 0.00D+00
 Harris functional with IExCor=  402 and IRadAn=       4 diagonalized for initial guess.
 HarFok:  IExCor=  402 AccDes= 0.00D+00 IRadAn=         4 IDoV= 1 UseB2=F ITyADJ=14
 ICtDFT=  3500011 ScaDFX=  1.000000  1.000000  1.000000  1.000000
 FoFCou: FMM=F IPFlag=           0 FMFlag=      100000 FMFlg1=           0
         NFxFlg=           0 DoJE=T BraDBF=F KetDBF=T FulRan=T
         wScrn=  0.000000 ICntrl=       500 IOpCl=  0 I1Cent=   200000004 NGrid=           0
         NMat0=    1 NMatS0=      1 NMatT0=    0 NMatD0=    1 NMtDS0=    0 NMtDT0=    0
 Petite list used in FoFCou.
 Requested convergence on RMS density matrix=1.00D-08 within 128 cycles.
 Requested convergence on MAX density matrix=1.00D-06.
 Requested convergence on             energy=1.00D-06.
 No special actions if energy rises.
 Integral accuracy reduced to 1.0D-05 until final iterations.
 Initial convergence to 1.0D-05 achieved.  Increase integral accuracy.
 SCF Done:  E(RB3LYP) =  -495.693466360     A.U. after   14 cycles
[...]
 ! D24   D(10,5,6,12)            0.0            -DE/DX =    0.0                 !
 ! D25   D(1,6,12,13)         -179.9999         -DE/DX =    0.0                 !
 ! D26   D(1,6,12,14)            0.0001         -DE/DX =    0.0                 !
 ! D27   D(5,6,12,13)            0.0001         -DE/DX =    0.0                 !
 ! D28   D(5,6,12,14)         -179.9999         -DE/DX =    0.0                 !
 ! D29   D(6,12,14,15)        -180.0            -DE/DX =    0.0                 !
 ! D30   D(13,12,14,15)          0.0            -DE/DX =    0.0                 !
 --------------------------------------------------------------------------------
 GradGradGradGradGradGradGradGradGradGradGradGradGradGradGradGradGradGrad


 ----------------------------------------------------------------------

 Electric dipole moment (input orientation):
 (Debye = 10**-18 statcoulomb cm , SI units = C m)
                  (au)            (Debye)         (10**-30 SI)
   Tot        0.277704D+01      0.705853D+01      0.235447D+02
   x         -0.406156D+00     -0.103235D+01     -0.344353D+01
   y         -0.274704D+01     -0.698227D+01     -0.232903D+02
   z         -0.281333D-01     -0.715078D-01     -0.238524D+00

 Dipole polarizability, Alpha (input orientation).
 (esu units = cm**3 , SI units = C**2 m**2 J**-1)
 Alpha(0;0):
               (au)            (10**-24 esu)      (10**-40 SI)
   iso        0.101630D+03      0.150599D+02      0.167564D+02
   aniso      0.756050D+02      0.112035D+02      0.124656D+02
   xx         0.124902D+03      0.185086D+02      0.205936D+02
   yx         0.111957D+02      0.165903D+01      0.184592D+01
   yy         0.127049D+03      0.188267D+02      0.209475D+02
   zx        -0.350435D+00     -0.519291D-01     -0.577789D-01
   zy         0.765055D+00      0.113369D+00      0.126141D+00
   zz         0.529377D+02      0.784456D+01      0.872825D+01

 ----------------------------------------------------------------------

 Dipole orientation:
     6          0.55788668         -0.07554162          3.42549405
     6          2.51575571         -0.38196055          1.69158473
     6          2.09977453         -0.31682195         -0.89092206
     6         -0.37102682          0.07045643         -1.98282258
     6         -2.34428220          0.37729094         -0.12893511
     6         -1.89231626          0.30657031          2.46190847
     1          0.89639253         -0.12892323          5.43654803
     1          4.42546632         -0.68060057          2.38920856
     1          3.66005524         -0.56122705         -2.20060731
     1         -4.25175843          0.67462455         -0.80611413
     8         -0.76728233          0.12923861         -4.33178548
     6         -4.06178331          0.64497320          4.17345996
     8         -6.25506462          0.98996617          3.59142092
     8         -3.44466265          0.54465029          6.69826336
     1         -5.04186330          0.79546816          7.55385910

 Electric dipole moment (dipole orientation):
 (Debye = 10**-18 statcoulomb cm , SI units = C m)
                  (au)            (Debye)         (10**-30 SI)
   Tot        0.277704D+01      0.705853D+01      0.235447D+02
   x          0.000000D+00      0.000000D+00      0.000000D+00
   y          0.000000D+00      0.000000D+00      0.000000D+00
   z          0.277704D+01      0.705853D+01      0.235447D+02

 Dipole polarizability, Alpha (dipole orientation).
 (esu units = cm**3 , SI units = C**2 m**2 J**-1)
 Alpha(0;0):
               (au)            (10**-24 esu)      (10**-40 SI)
   iso        0.101630D+03      0.150599D+02      0.167564D+02
   aniso      0.756050D+02      0.112035D+02      0.124656D+02
   xx         0.120074D+03      0.177931D+02      0.197975D+02
   yx        -0.104912D+02     -0.155463D+01     -0.172976D+01
   yy         0.545659D+02      0.808583D+01      0.899670D+01
   zx        -0.102777D+02     -0.152300D+01     -0.169457D+01
   zy         0.159811D+01      0.236816D+00      0.263494D+00
   zz         0.130249D+03      0.193009D+02      0.214751D+02

 ----------------------------------------------------------------------
 1\1\GINC-N12\Freq\RB3LYP\def2TZVP\C7H5O3(1-)\UNKNOWN\21-Jan-2025\0\\#N
  Geom=AllCheck Guess=TCheck SCRF=Check GenChk RB3LYP/def2TZVP Freq\\op
 t meta\\-1,1\C,0.0295685233,-1.8367143074,-0.0147292884\C,1.2011341542
 ,-1.0823699553,-0.0143029564\C,1.1805978396,0.3020362251,0.0014443211\
 C,-0.0440852808,1.0670512335,0.0187953145\C,-1.2329348944,0.2510957172
 ,0.0167525114\C,-1.1939812601,-1.1404914793,0.0008236057\H,0.053310767
 9,-2.9159245814,-0.0272549226\H,2.1589765239,-1.5970627618,-0.02656717
 52\H,2.1086862929,0.86544346,0.0012868743\H,-2.1911017102,0.7549057449
 ,0.0283961992\O,-0.0719922498,2.3276424149,0.0314899162\C,-2.475843393
 6,-1.8665727021,0.0008828621\O,-3.5930329171,-1.3901703488,0.014844429
 5\O,-2.3439815574,-3.2365437617,-0.0174054857\H,-3.2565368285,-3.55935
 91178,-0.0143142857\\Version=ES64L-G16RevA.03\State=1-A\HF=-495.693611
 \RMSD=9.012e-09\RMSF=7.110e-05\ZeroPoint=0.1052862\Thermal=0.113387\Di
 pole=-0.406156,-2.7470355,-0.0281333\DipoleDeriv=-0.3399578,0.1795254,
 0.0026982,-0.0217836,-0.3888933,-0.0014579,0.0000438,-0.0016931,-0.235
 1252,0.2821097,-0.0296263,-0.003585,0.1609278,0.2973339,0.004368,-0.00
 10996,0.005082,-0.1874084,-0.0035637,0.5408914,0.0041888,-0.1118972,-0
 .3861369,-0.0007743,-0.0031447,-0.0052473,-0.2509537,-0.1551111,0.0319
 093,0.0019717,0.0412714,2.0291425,0.0212253,0.0022788,0.0204965,0.0942
 452,0.0466807,-0.560863,-0.0078064,0.4315309,-0.381946,-0.0045965,0.00
 33036,0.0017506,-0.2121546,-0.4437242,-0.4762779,-0.0028265,-0.753236,
 0.0266089,0.0058148,-0.0061291,0.0036281,-0.0747825,0.0613156,0.014707
 2,0.000815,0.0207734,-0.1136801,-0.0031663,0.0010108,-0.0035202,0.1554
 573,-0.1874163,0.1286732,0.0035306,0.1372957,-0.0171,-0.0024296,0.0034
 77,-0.0023592,0.1194203,-0.1351215,-0.1023591,0.0006587,-0.1334205,-0.
 028342,-0.000833,0.0003307,-0.00107,0.126652,-0.0360518,0.0681438,0.00
 17681,0.0743947,0.0183558,-0.0016846,0.0017656,-0.0017466,0.1270017,-0
 .3670688,-0.0021144,-0.0007813,-0.055778,-2.0791046,-0.0174702,-0.0013
 901,-0.0162155,-0.4843713,2.1270935,0.3585382,-0.0090142,0.3182143,1.8
 002402,0.0172548,-0.008856,0.0168581,0.2613462,-1.5735581,-0.0222679,0
 .0084624,0.0748558,-0.6744307,-0.0042844,0.0092664,-0.0036438,-0.38058
 7,-0.4088731,-0.091989,-0.0009085,-0.2459404,-1.4316146,-0.0118522,-0.
 003128,-0.0131394,-0.3591315,0.1332468,-0.0368909,0.0008284,0.062792,0
 .3295667,-0.0001141,0.0022706,0.0008197,0.3003915\Polar=124.9022939,11
 .1956747,127.0485363,-0.3504349,0.765055,52.9377181\Quadrupole=1.22157
 1,-9.3710524,8.1494814,-3.2965423,0.0138272,-0.1732312\PG=C01 [X(C7H5O
 3)]\NImag=0\\0.62742117,0.01157407,0.73257173,-0.00341461,0.00720452,0
 .08732135,-0.26539305,-0.11935423,0.00016809,0.69149440,-0.06579739,-0
 .17328181,-0.00102831,-0.01961008,0.67364472,0.00078206,-0.00063787,-0
 .04311258,-0.00415279,0.00644754,0.11263055,0.02155754,-0.02590478,-0.
 00043994,-0.12602425,-0.02156706,0.00034646,0.62349663,-0.06326967,-0.
 03812570,-0.00001090,0.03206510,-0.35240285,-0.00372047,0.05649070,0.6
 9993695,-0.00084350,-0.00026958,0.00221900,0.00094688,-0.00334383,-0.0
 4342232,-0.00297496,0.00626601,0.10619596,-0.05610166,-0.00056634,0.00
 035400,0.03829057,0.05609424,0.00033356,-0.21623778,0.01625150,0.00124
 895,0.53504175,-0.00156530,0.00772300,0.00008539,0.02836567,-0.0221985
 7,-0.00040831,0.04977118,-0.12752805,-0.00102045,-0.00584617,0.7800773
 5,0.00033783,0.00008383,-0.00069849,0.00002684,-0.00055454,-0.00415639
 ,0.00161335,-0.00079288,-0.07017228,-0.00232412,0.00629547,0.18896628,
 0.01239657,0.02845814,0.00030369,-0.00925704,-0.00207577,0.00004438,-0
 .03364290,-0.00023618,0.00023028,-0.21323654,-0.05309324,0.00023363,0.
 64694753,0.05670483,-0.03305554,-0.00079666,-0.02455771,-0.02759444,-0
 .00015738,-0.00324941,0.04246550,0.00046305,-0.02261786,-0.13124892,-0
 .00057074,-0.05366659,0.68229794,0.00060473,-0.00062901,0.00711063,-0.
 00020974,-0.00031647,0.00127823,0.00021554,0.00044318,0.00276843,0.000
 57137,-0.00037446,-0.07131385,-0.00393861,0.00673621,0.11215940,-0.241
 50066,0.10513542,0.00238596,-0.06215685,-0.02639777,0.00013052,-0.0124
 7023,0.02681459,0.00038877,0.03414601,-0.02275576,-0.00046359,-0.11929
 811,-0.00343654,0.00038797,0.62831139,0.06700467,-0.16073667,-0.001712
 09,0.01026316,0.03173109,0.00024930,0.00386284,-0.02445124,-0.00032004
 ,-0.04899921,-0.02368599,0.00009510,0.03227409,-0.33086455,-0.00335407
 ,-0.03750040,0.67328894,0.00195820,-0.00193689,-0.04881799,0.00054823,
 0.00049854,0.00270381,0.00012992,-0.00045437,0.00076055,-0.00077379,-0
 .00010840,-0.00238601,0.00078796,-0.00315114,-0.05156478,-0.00361608,0
 .00639642,0.13413499,-0.05688678,0.00629533,0.00034019,0.00499410,-0.0
 2793928,-0.00038087,-0.00429787,-0.00113850,0.00006601,-0.00113072,-0.
 00028493,-0.00000902,-0.00517866,0.00106537,0.00007631,0.00402131,0.02
 738845,0.00026041,0.05716926,0.00930064,-0.33973162,-0.00376254,0.0034
 6379,-0.01201554,-0.00011017,-0.00319556,0.00081634,-0.00005449,-0.000
 14670,0.00056173,0.00003184,0.00305358,0.00122350,-0.00006350,-0.00187
 624,-0.01225326,-0.00007470,-0.00624659,0.36298440,0.00037395,-0.00376
 871,-0.01608413,-0.00002241,0.00010653,-0.00432650,0.00004498,-0.00006
 623,0.00744069,-0.00000553,0.00003628,-0.00214163,0.00009669,-0.000050
 10,0.00503885,-0.00007238,-0.00025375,-0.00466059,-0.00033045,0.003991
 84,0.01768738,-0.02040629,0.01648048,0.00031666,-0.25973758,0.10701079
 ,0.00276161,0.00040521,-0.00034206,0.00000185,0.00266746,-0.00093958,0
 .00003479,0.00084416,-0.00066127,-0.00001875,-0.00341633,-0.00512329,0
 .00001340,0.00114312,-0.00059933,-0.00003581,0.27906759,-0.01489592,0.
 01134455,0.00023222,0.10773280,-0.11609283,-0.00168055,0.03168289,-0.0
 1163683,-0.00037164,-0.00419870,-0.00345299,-0.00011295,-0.00010581,-0
 .00035594,0.00000601,-0.00267317,-0.00102827,-0.00007025,0.00072695,0.
 00092398,0.00004080,-0.11843451,0.12074197,-0.00003721,0.00001712,-0.0
 0083715,0.00276545,-0.00166825,-0.03061266,0.00037122,-0.00015418,0.00
 135680,-0.00001287,-0.00013854,0.00943334,-0.00001340,0.00001670,-0.00
 090160,0.00004412,-0.00005197,0.00688343,-0.00002005,0.00004840,-0.002
 99193,-0.00306698,0.00189719,0.02335795,0.00256812,0.00043970,0.000047
 78,0.00291776,0.00288652,0.00000511,-0.25526882,-0.11712200,0.00026608
 ,-0.01946610,-0.02250760,-0.00007124,-0.00465807,0.00431645,0.00011734
 ,-0.00024408,0.00145116,0.00001492,-0.00001348,0.00014250,0.00000690,0
 .00130818,-0.00089757,-0.00004879,0.26988087,0.00218351,-0.00491959,-0
 .00016256,-0.02877329,-0.01200445,0.00007459,-0.11768633,-0.12524468,-
 0.00024419,0.01265940,0.00898250,-0.00005772,0.00245045,-0.00109815,-0
 .00008356,0.00067645,-0.00037042,-0.00000457,-0.00126069,-0.00072135,-
 0.00000808,0.00051089,0.00099857,0.00005363,0.13033181,0.13187023,0.00
 006237,-0.00014736,0.00805790,-0.00034925,-0.00015464,-0.00052613,0.00
 024137,-0.00024137,-0.03077633,0.00033329,0.00019783,0.00620671,0.0000
 9783,-0.00009834,0.00492411,0.00000393,-0.00001395,-0.00029777,-0.0000
 0874,-0.00001729,0.00073889,-0.00003072,0.00006196,-0.00407802,-0.0002
 8033,0.00033108,0.02176205,0.00246361,-0.00081555,0.00000834,-0.000273
 09,-0.00153122,-0.00001653,-0.00371249,-0.00367344,0.00000996,-0.01816
 065,0.01845950,0.00036155,-0.27518778,0.11496779,0.00279536,0.00191435
 ,0.00062140,0.00000175,0.00011680,-0.00013751,0.00000947,-0.00004946,0
 .00005711,-0.00000347,-0.00137501,0.00067541,0.00000808,0.29167580,-0.
 00218335,-0.00511200,-0.00010820,-0.00054877,-0.00036454,0.00000281,-0
 .00268098,-0.00167758,-0.00005425,-0.01456990,0.01041855,0.00012950,0.
 11275903,-0.11473076,-0.00164230,0.02857713,-0.01085803,-0.00030803,0.
 00149304,-0.00072046,-0.00003982,0.00011380,0.00004107,0.00000872,-0.0
 0092413,0.00047104,0.00003002,-0.12560721,0.11939395,-0.00000028,-0.00
 011195,0.00561400,-0.00000680,0.00000436,-0.00025743,0.00001938,-0.000
 05175,0.00475840,-0.00002360,-0.00006394,0.00684618,0.00279580,-0.0016
 4954,-0.03192695,0.00030387,-0.00014264,0.00081293,0.00002799,-0.00002
 964,0.00197256,-0.00000407,0.00000950,-0.00081336,-0.00001413,0.000019
 57,-0.00157035,-0.00307966,0.00188147,0.02257899,0.01288561,0.00014387
 ,-0.00009012,-0.01219566,-0.00929133,0.00001451,0.00517681,0.05386447,
 0.00066544,-0.09190482,0.00895466,0.00024188,0.00780481,-0.05061920,-0
 .00045846,-0.01067031,0.00775957,0.00018327,0.00060458,0.00002044,-0.0
 0000694,-0.00052754,0.00181895,0.00001893,0.00446094,-0.00161031,-0.00
 007414,0.00406221,0.00196348,-0.00002559,0.08142786,-0.00046990,-0.008
 92051,-0.00006889,0.00426915,0.00776711,0.00000574,0.03120822,-0.05859
 699,-0.00101151,0.01056182,-0.49595045,-0.00441140,-0.02987449,-0.0617
 8673,-0.00064530,-0.00531291,0.00593361,0.00005166,0.00013980,-0.00013
 753,-0.00000221,0.00105893,-0.00205420,-0.00002150,0.00194683,0.002032
 96,0.00004126,-0.00123801,0.00168155,0.00006052,-0.01210015,0.61180844
 ,-0.00009441,-0.00007791,-0.00118534,0.00016314,0.00008477,0.00496355,
 0.00042923,-0.00118853,0.01957755,0.00025847,-0.00435914,-0.06848825,-
 0.00024113,-0.00053390,0.01933440,0.00003465,-0.00004252,0.00475821,-0
 .00000480,0.00000236,-0.00032939,0.00000568,-0.00001818,-0.00134411,-0
 .00003723,0.00007142,-0.00358235,-0.00006010,0.00004622,-0.00371407,-0
 .00045484,0.00601571,0.03099108,-0.03884012,-0.01073249,0.00012110,-0.
 00016532,0.01142080,0.00016406,0.00171770,-0.00029160,-0.00001472,0.00
 513173,-0.00261616,-0.00000917,0.00118314,-0.02820724,-0.00033207,-0.1
 6290806,-0.03369347,0.00017694,0.00145955,-0.00097615,-0.00004184,0.00
 009297,-0.00071503,-0.00000145,0.00018998,0.00033836,-0.00000130,-0.00
 185189,0.00459106,0.00004134,-0.00086602,0.00641795,0.00006594,0.89812
 909,0.00236480,0.01732360,0.00025155,0.00873542,0.00177064,-0.00011919
 ,0.00225152,-0.00313827,-0.00003793,0.00095182,-0.00708306,-0.00020682
 ,-0.03098510,-0.02581586,-0.00010275,-0.05266432,-0.11975327,-0.000139
 56,0.00315682,-0.00296025,-0.00002516,0.00190883,0.00057154,-0.0000191
 4,0.00049869,-0.00014348,0.00000929,-0.00026621,-0.00123586,0.00003972
 ,-0.00002863,0.00081015,0.00002782,-0.08688455,0.55582005,0.00025173,0
 .00030594,-0.00459524,0.00013478,-0.00012413,0.00653993,0.00000998,-0.
 00001322,-0.00080499,0.00006609,-0.00018438,0.01043533,-0.00036343,-0.
 00011765,-0.00001356,-0.00005816,-0.00025203,-0.07680910,0.00001057,0.
 00000378,-0.00287670,0.00002762,-0.00000170,0.00110142,-0.00000408,0.0
 0000852,-0.00115473,-0.00001623,0.00000421,-0.00452456,-0.00001204,-0.
 00002152,-0.00155544,-0.00600588,0.00488440,0.21138145,0.00466627,-0.0
 0939747,-0.00011356,-0.00426298,-0.00323669,-0.00002130,-0.00081490,0.
 00179615,0.00002352,0.00039922,0.00424664,0.00003907,-0.00196086,0.009
 95499,0.00013593,-0.06210390,0.00751734,0.00066813,0.00041625,0.000509
 82,0.00000979,-0.00122045,-0.00023935,0.00000262,-0.00026990,-0.000291
 56,-0.00000024,-0.00002726,-0.00224348,-0.00002459,0.00001657,-0.00445
 477,-0.00004532,-0.58284808,0.18298665,0.00589696,0.66238941,-0.003866
 84,-0.00265388,-0.00005041,-0.00091824,0.00257234,0.00005468,-0.000379
 35,-0.00050082,-0.00000541,0.00105043,0.00214014,0.00002879,-0.0024567
 9,-0.00473298,-0.00004237,-0.00288480,0.01808938,-0.00000090,-0.000967
 11,0.00082991,0.00000981,-0.00038486,-0.00010616,0.00000668,-0.0002926
 1,0.00012573,0.00000139,-0.00230162,0.00183039,0.00003679,-0.00050182,
 -0.00024557,-0.00000257,0.18926714,-0.19128015,-0.00275861,-0.25691249
 ,0.23250201,-0.00005063,-0.00000387,0.00390442,0.00001129,0.00006409,-
 0.00142585,0.00000098,-0.00002095,0.00015441,-0.00000150,0.00000928,-0
 .00123359,-0.00001328,-0.00012778,0.00067760,0.00054143,-0.00008689,0.
 01983356,-0.00001235,0.00000159,0.00042138,0.00000083,0.00000673,-0.00
 053266,0.00000036,0.00000084,0.00024518,-0.00002685,0.00003600,0.00000
 610,-0.00000233,0.00002486,0.00037035,0.00597986,-0.00269666,-0.079089
 61,-0.00772291,0.00433527,0.03384869,-0.00489843,-0.00214917,0.0000098
 3,0.00173651,0.00006120,-0.00001229,0.00017521,-0.00130329,-0.00001619
 ,-0.00001026,-0.00003118,-0.00000165,-0.00634144,0.00007715,0.00004712
 ,0.00408871,-0.03422535,-0.00038008,-0.00257188,-0.00302393,-0.0000205
 9,-0.00014714,0.00013725,0.00000175,-0.00003726,-0.00019037,-0.0000019
 0,0.00035448,-0.00069450,-0.00001023,-0.00011041,-0.00210820,-0.000020
 46,-0.12111502,-0.02037631,0.00017584,-0.00976841,0.07549893,0.0012315
 9,0.58124648,0.00178333,-0.00263204,-0.00007300,-0.00104212,-0.0018647
 1,-0.00000118,-0.00070511,-0.00007057,0.00000335,-0.00127841,0.0021158
 8,0.00004861,-0.00457087,0.00558731,0.00007319,-0.01050301,-0.03903606
 ,-0.00054968,-0.00222768,0.00074066,0.00001783,-0.00065955,0.00012328,
 0.00000584,-0.00031237,-0.00002924,-0.00000083,0.00071804,0.00105336,0
 .00000186,-0.00016851,-0.00249958,-0.00002797,0.01247135,-0.19472531,-
 0.00175250,0.06431810,-0.06740092,-0.00168913,0.09267416,0.38409801,0.
 00005985,-0.00003339,0.00132799,-0.00002498,-0.00001498,-0.00065097,-0
 .00000868,0.00000391,-0.00007194,-0.00002784,0.00003853,-0.00077846,-0
 .00000141,0.00005344,0.00158666,-0.00008365,-0.00038594,0.01150793,-0.
 00001041,0.00002096,0.00051648,-0.00000714,0.00000149,-0.00003363,-0.0
 0000271,-0.00000036,0.00011153,0.00000704,0.00001704,0.00008869,0.0000
 0230,-0.00002047,0.00016863,0.00058513,-0.00149673,-0.06314033,0.00109
 653,-0.00175326,0.02907324,-0.00305317,0.00365870,0.03375688,0.0000680
 9,0.00039304,0.00000258,0.00003248,-0.00002695,0.00000150,-0.00005987,
 0.00009423,0.00000163,0.00057179,-0.00015771,-0.00001015,-0.00041480,-
 0.00007078,0.00000595,0.00228677,0.00139905,0.00002682,0.00015443,-0.0
 0028878,-0.00000584,-0.00002389,0.00000412,0.00000013,0.00000688,-0.00
 001372,-0.00000026,0.00005036,-0.00004520,0.00000056,-0.00016464,-0.00
 004426,0.00000117,0.00069035,-0.01164944,-0.00011374,-0.00461098,0.006
 05002,0.00006352,-0.44260112,-0.15049735,0.00146913,0.44401416,0.00113
 253,0.00020647,-0.00000012,-0.00009063,0.00033384,0.00000045,0.0001012
 3,0.00015481,0.00000089,0.00065408,-0.00087111,-0.00000609,-0.00193045
 ,-0.00029038,-0.00000479,0.00480133,-0.00600525,-0.00014813,-0.0002010
 0,0.00045949,0.00001096,0.00006073,-0.00001774,-0.00000071,0.00004262,
 0.00005034,0.00000094,0.00007154,-0.00019068,-0.00000434,-0.00020549,0
 .00015775,0.00000240,-0.06038998,-0.03016047,0.00001890,0.00544613,0.0
 0883060,0.00014663,-0.10434637,-0.08546006,-0.00008894,0.15485373,0.11
 280237,0.00000992,0.00000511,-0.00022439,0.00000128,-0.00000069,0.0003
 7478,0.00000116,0.00000176,0.00001607,0.00000351,-0.00000515,-0.000518
 88,-0.00001900,-0.00001617,0.00084242,0.00007262,-0.00012493,0.0031408
 2,-0.00000478,0.00001156,-0.00040536,0.00000102,-0.00000063,0.00001217
 ,0.00000003,0.00000137,-0.00006068,0.00000128,-0.00000340,0.00012886,-
 0.00000188,0.00000306,0.00003517,-0.00072795,-0.00036887,0.00510612,0.
 00005537,0.00014011,-0.00625322,0.00205041,0.00028491,-0.01346270,-0.0
 0144299,0.00007196,0.01126882\\-0.00001764,0.00003823,0.00005106,-0.00
 001606,0.00000819,-0.00003995,-0.00001351,0.00000304,-0.00010170,-0.00
 000688,-0.00010577,0.00035611,0.00002382,0.00005188,-0.00011263,-0.000
 03418,-0.00012580,-0.00003689,-0.00000598,-0.00000643,-0.00000795,-0.0
 0000058,0.00000434,0.00000866,-0.00000174,0.00000387,0.00000697,-0.000
 00485,-0.00000373,0.00000805,-0.00000121,0.00002924,-0.00014117,-0.000
 03153,0.00006838,0.00002835,0.00004855,-0.00000965,-0.00000681,0.00007
 936,0.00002653,-0.00002156,-0.00001757,0.00001769,0.00000945\\\@


 THE MORE ACCURATE THE CALCULATIONS BECOME, THE MORE THE CONCEPTS
 TEND TO VANISH INTO THIN AIR.
     -- R.S. MULLIKEN, J.C.P. 43,S2(1965)
 Job cpu time:       0 days  0 hours 22 minutes 36.0 seconds.
 Elapsed time:       0 days  0 hours 22 minutes 38.1 seconds.
 File lengths (MBytes):  RWF=    162 Int=      0 D2E=      0 Chk=     11 Scr=      1
 Normal termination of Gaussian 16 at Tue Jan 21 11:25:19 2025.
