Single-Point                                                            
SP        RB3LYP                                                      def2TZVP            
Number of atoms                            I               12
Info1-9                                    I   N=           9
          20          19           0           0           0         110
           1          18        -502
Full Title                                 C   N=           1
Single-Point
Route                                      C   N=           4
#P B3LYP/def2tzvp nosymm Density=Current        
Charge                                     I                1
Multiplicity                               I                1
Number of electrons                        I               44
Number of alpha electrons                  I               22
Number of beta electrons                   I               22
Number of basis functions                  I              235
Number of independent functions            I              235
Number of point charges in /Mol/           I                0
Number of translation vectors              I                0
Atomic numbers                             I   N=          12
           6           6           6           6           6           6
           1           1           1           1           1           4
Nuclear charges                            R   N=          12
  6.00000000E+00  6.00000000E+00  6.00000000E+00  6.00000000E+00  6.00000000E+00
  6.00000000E+00  1.00000000E+00  1.00000000E+00  1.00000000E+00  1.00000000E+00
  1.00000000E+00  4.00000000E+00
Current cartesian coordinates              R   N=          36
  0.00000000E+00  3.01743531E+00  0.00000000E+00  2.28828826E+00  1.71668012E+00
  0.00000000E+00  2.30878423E+00 -9.00979842E-01  0.00000000E+00  0.00000000E+00
 -2.23749620E+00  0.00000000E+00 -2.30878423E+00 -9.00979842E-01  0.00000000E+00
 -2.28828826E+00  1.71668012E+00  0.00000000E+00  0.00000000E+00  5.06299014E+00
  0.00000000E+00  4.05728923E+00  2.74246504E+00  0.00000000E+00  4.10418279E+00
 -1.88134897E+00  0.00000000E+00 -4.10418279E+00 -1.88134897E+00  0.00000000E+00
 -4.05728923E+00  2.74246504E+00  0.00000000E+00  0.00000000E+00 -5.31331271E+00
  0.00000000E+00
Number of symbols in /Mol/                 I                0
Force Field                                I                0
Atom Types                                 C   N=          12
                                                            
                                                            
                        
Int Atom Types                             I   N=          12
           0           0           0           0           0           0
           0           0           0           0           0           0
MM charges                                 R   N=          12
  0.00000000E+00  0.00000000E+00  0.00000000E+00  0.00000000E+00  0.00000000E+00
  0.00000000E+00  0.00000000E+00  0.00000000E+00  0.00000000E+00  0.00000000E+00
  0.00000000E+00  0.00000000E+00
Integer atomic weights                     I   N=          12
          12          12          12          12          12          12
           1           1           1           1           1           9
Real atomic weights                        R   N=          12
  1.20000000E+01  1.20000000E+01  1.20000000E+01  1.20000000E+01  1.20000000E+01
  1.20000000E+01  1.00782504E+00  1.00782504E+00  1.00782504E+00  1.00782504E+00
  1.00782504E+00  9.01218250E+00
Atom fragment info                         I   N=          12
           0           0           0           0           0           0
           0           0           0           0           0           0
Atom residue num                           I   N=          12
           0           0           0           0           0           0
           0           0           0           0           0           0
Nuclear spins                              I   N=          12
           0           0           0           0           0           0
           1           1           1           1           1           3
Nuclear ZEff                               R   N=          12
 -3.60000000E+00 -3.60000000E+00 -3.60000000E+00 -3.60000000E+00 -3.60000000E+00
 -3.60000000E+00 -1.00000000E+00 -1.00000000E+00 -1.00000000E+00 -1.00000000E+00
 -1.00000000E+00 -2.00000000E+00
Nuclear ZNuc                               R   N=          12
  6.00000000E+00  6.00000000E+00  6.00000000E+00  6.00000000E+00  6.00000000E+00
  6.00000000E+00  1.00000000E+00  1.00000000E+00  1.00000000E+00  1.00000000E+00
  1.00000000E+00  4.00000000E+00
Nuclear QMom                               R   N=          12
  0.00000000E+00  0.00000000E+00  0.00000000E+00  0.00000000E+00  0.00000000E+00
  0.00000000E+00  0.00000000E+00  0.00000000E+00  0.00000000E+00  0.00000000E+00
  0.00000000E+00  5.28800000E+00
Nuclear GFac                               R   N=          12
  0.00000000E+00  0.00000000E+00  0.00000000E+00  0.00000000E+00  0.00000000E+00
  0.00000000E+00  2.79284600E+00  2.79284600E+00  2.79284600E+00  2.79284600E+00
  2.79284600E+00 -1.17790000E+00
MicOpt                                     I   N=          12
          -1          -1          -1          -1          -1          -1
          -1          -1          -1          -1          -1          -1
Number of residues                         I                0
Number of secondary structures             I                0
Number of contracted shells                I               95
Number of primitive shells                 I              166
Pure/Cartesian d shells                    I                0
Pure/Cartesian f shells                    I                0
Highest angular momentum                   I                3
Largest degree of contraction              I                6
Shell types                                I   N=          95
           0           0           0           0           0           1
           1           1          -2          -2          -3           0
           0           0           0           0           1           1
           1          -2          -2          -3           0           0
           0           0           0           1           1           1
          -2          -2          -3           0           0           0
           0           0           1           1           1          -2
          -2          -3           0           0           0           0
           0           1           1           1          -2          -2
          -3           0           0           0           0           0
           1           1           1          -2          -2          -3
           0           0           0           1           0           0
           0           1           0           0           0           1
           0           0           0           1           0           0
           0           1           0           0           0           0
           0           1           1           1          -2
Number of primitives per shell             I   N=          95
           6           2           1           1           1           4
           1           1           1           1           1           6
           2           1           1           1           4           1
           1           1           1           1           6           2
           1           1           1           4           1           1
           1           1           1           6           2           1
           1           1           4           1           1           1
           1           1           6           2           1           1
           1           4           1           1           1           1
           1           6           2           1           1           1
           4           1           1           1           1           1
           3           1           1           1           3           1
           1           1           3           1           1           1
           3           1           1           1           3           1
           1           1           6           2           1           1
           1           2           1           1           1
Shell to atom map                          I   N=          95
           1           1           1           1           1           1
           1           1           1           1           1           2
           2           2           2           2           2           2
           2           2           2           2           3           3
           3           3           3           3           3           3
           3           3           3           4           4           4
           4           4           4           4           4           4
           4           4           5           5           5           5
           5           5           5           5           5           5
           5           6           6           6           6           6
           6           6           6           6           6           6
           7           7           7           7           8           8
           8           8           9           9           9           9
          10          10          10          10          11          11
          11          11          12          12          12          12
          12          12          12          12          12
Primitive exponents                        R   N=         166
  1.35753497E+04  2.03523337E+03  4.63225624E+02  1.31200196E+02  4.28530159E+01
  1.55841858E+01  6.20671385E+00  2.57648965E+00  5.76963394E-01  2.29728314E-01
  9.51644400E-02  3.46972322E+01  7.95826228E+00  2.37808269E+00  8.14332082E-01
  2.88875473E-01  1.00568237E-01  1.09700000E+00  3.18000000E-01  7.61000000E-01
  1.35753497E+04  2.03523337E+03  4.63225624E+02  1.31200196E+02  4.28530159E+01
  1.55841858E+01  6.20671385E+00  2.57648965E+00  5.76963394E-01  2.29728314E-01
  9.51644400E-02  3.46972322E+01  7.95826228E+00  2.37808269E+00  8.14332082E-01
  2.88875473E-01  1.00568237E-01  1.09700000E+00  3.18000000E-01  7.61000000E-01
  1.35753497E+04  2.03523337E+03  4.63225624E+02  1.31200196E+02  4.28530159E+01
  1.55841858E+01  6.20671385E+00  2.57648965E+00  5.76963394E-01  2.29728314E-01
  9.51644400E-02  3.46972322E+01  7.95826228E+00  2.37808269E+00  8.14332082E-01
  2.88875473E-01  1.00568237E-01  1.09700000E+00  3.18000000E-01  7.61000000E-01
  1.35753497E+04  2.03523337E+03  4.63225624E+02  1.31200196E+02  4.28530159E+01
  1.55841858E+01  6.20671385E+00  2.57648965E+00  5.76963394E-01  2.29728314E-01
  9.51644400E-02  3.46972322E+01  7.95826228E+00  2.37808269E+00  8.14332082E-01
  2.88875473E-01  1.00568237E-01  1.09700000E+00  3.18000000E-01  7.61000000E-01
  1.35753497E+04  2.03523337E+03  4.63225624E+02  1.31200196E+02  4.28530159E+01
  1.55841858E+01  6.20671385E+00  2.57648965E+00  5.76963394E-01  2.29728314E-01
  9.51644400E-02  3.46972322E+01  7.95826228E+00  2.37808269E+00  8.14332082E-01
  2.88875473E-01  1.00568237E-01  1.09700000E+00  3.18000000E-01  7.61000000E-01
  1.35753497E+04  2.03523337E+03  4.63225624E+02  1.31200196E+02  4.28530159E+01
  1.55841858E+01  6.20671385E+00  2.57648965E+00  5.76963394E-01  2.29728314E-01
  9.51644400E-02  3.46972322E+01  7.95826228E+00  2.37808269E+00  8.14332082E-01
  2.88875473E-01  1.00568237E-01  1.09700000E+00  3.18000000E-01  7.61000000E-01
  3.40613410E+01  5.12357460E+00  1.16466260E+00  3.27230410E-01  1.03072410E-01
  8.00000000E-01  3.40613410E+01  5.12357460E+00  1.16466260E+00  3.27230410E-01
  1.03072410E-01  8.00000000E-01  3.40613410E+01  5.12357460E+00  1.16466260E+00
  3.27230410E-01  1.03072410E-01  8.00000000E-01  3.40613410E+01  5.12357460E+00
  1.16466260E+00  3.27230410E-01  1.03072410E-01  8.00000000E-01  3.40613410E+01
  5.12357460E+00  1.16466260E+00  3.27230410E-01  1.03072410E-01  8.00000000E-01
  4.70023656E+03  7.04828456E+02  1.60431105E+02  4.54253473E+01  1.47983341E+01
  5.35124525E+00  2.15420448E+00  9.33637444E-01  1.87914330E-01  7.46482679E-02
  3.26504846E-02  7.16956944E-01  1.95419329E-01  3.63169171E+00  6.05154659E-02
  1.80000000E-01
Contraction coefficients                   R   N=         166
  6.06455036E-04  4.69790889E-03  2.43324776E-02  9.73999683E-02  3.01955843E-01
  6.62336091E-01  6.55953085E-01  3.75856333E-01  1.00000000E+00  1.00000000E+00
  1.00000000E+00  1.13272200E-02  7.61696592E-02  3.01922522E-01  7.27850273E-01
  1.00000000E+00  1.00000000E+00  1.00000000E+00  1.00000000E+00  1.00000000E+00
  6.06455036E-04  4.69790889E-03  2.43324776E-02  9.73999683E-02  3.01955843E-01
  6.62336091E-01  6.55953085E-01  3.75856333E-01  1.00000000E+00  1.00000000E+00
  1.00000000E+00  1.13272200E-02  7.61696592E-02  3.01922522E-01  7.27850273E-01
  1.00000000E+00  1.00000000E+00  1.00000000E+00  1.00000000E+00  1.00000000E+00
  6.06455036E-04  4.69790889E-03  2.43324776E-02  9.73999683E-02  3.01955843E-01
  6.62336091E-01  6.55953085E-01  3.75856333E-01  1.00000000E+00  1.00000000E+00
  1.00000000E+00  1.13272200E-02  7.61696592E-02  3.01922522E-01  7.27850273E-01
  1.00000000E+00  1.00000000E+00  1.00000000E+00  1.00000000E+00  1.00000000E+00
  6.06455036E-04  4.69790889E-03  2.43324776E-02  9.73999683E-02  3.01955843E-01
  6.62336091E-01  6.55953085E-01  3.75856333E-01  1.00000000E+00  1.00000000E+00
  1.00000000E+00  1.13272200E-02  7.61696592E-02  3.01922522E-01  7.27850273E-01
  1.00000000E+00  1.00000000E+00  1.00000000E+00  1.00000000E+00  1.00000000E+00
  6.06455036E-04  4.69790889E-03  2.43324776E-02  9.73999683E-02  3.01955843E-01
  6.62336091E-01  6.55953085E-01  3.75856333E-01  1.00000000E+00  1.00000000E+00
  1.00000000E+00  1.13272200E-02  7.61696592E-02  3.01922522E-01  7.27850273E-01
  1.00000000E+00  1.00000000E+00  1.00000000E+00  1.00000000E+00  1.00000000E+00
  6.06455036E-04  4.69790889E-03  2.43324776E-02  9.73999683E-02  3.01955843E-01
  6.62336091E-01  6.55953085E-01  3.75856333E-01  1.00000000E+00  1.00000000E+00
  1.00000000E+00  1.13272200E-02  7.61696592E-02  3.01922522E-01  7.27850273E-01
  1.00000000E+00  1.00000000E+00  1.00000000E+00  1.00000000E+00  1.00000000E+00
  2.54393072E-02  1.90085949E-01  8.52441130E-01  1.00000000E+00  1.00000000E+00
  1.00000000E+00  2.54393072E-02  1.90085949E-01  8.52441130E-01  1.00000000E+00
  1.00000000E+00  1.00000000E+00  2.54393072E-02  1.90085949E-01  8.52441130E-01
  1.00000000E+00  1.00000000E+00  1.00000000E+00  2.54393072E-02  1.90085949E-01
  8.52441130E-01  1.00000000E+00  1.00000000E+00  1.00000000E+00  2.54393072E-02
  1.90085949E-01  8.52441130E-01  1.00000000E+00  1.00000000E+00  1.00000000E+00
  6.91863976E-04  5.35193921E-03  2.75656037E-02  1.08274820E-01  3.19687314E-01
  6.36416478E-01  7.00140171E-01  3.26875072E-01  1.00000000E+00  1.00000000E+00
  1.00000000E+00 -2.67352595E-01 -8.14252667E-01 -1.00000000E+00  1.00000000E+00
  1.00000000E+00
Coordinates of each shell                  R   N=         285
  0.00000000E+00  3.01743531E+00  0.00000000E+00  0.00000000E+00  3.01743531E+00
  0.00000000E+00  0.00000000E+00  3.01743531E+00  0.00000000E+00  0.00000000E+00
  3.01743531E+00  0.00000000E+00  0.00000000E+00  3.01743531E+00  0.00000000E+00
  0.00000000E+00  3.01743531E+00  0.00000000E+00  0.00000000E+00  3.01743531E+00
  0.00000000E+00  0.00000000E+00  3.01743531E+00  0.00000000E+00  0.00000000E+00
  3.01743531E+00  0.00000000E+00  0.00000000E+00  3.01743531E+00  0.00000000E+00
  0.00000000E+00  3.01743531E+00  0.00000000E+00  2.28828826E+00  1.71668012E+00
  0.00000000E+00  2.28828826E+00  1.71668012E+00  0.00000000E+00  2.28828826E+00
  1.71668012E+00  0.00000000E+00  2.28828826E+00  1.71668012E+00  0.00000000E+00
  2.28828826E+00  1.71668012E+00  0.00000000E+00  2.28828826E+00  1.71668012E+00
  0.00000000E+00  2.28828826E+00  1.71668012E+00  0.00000000E+00  2.28828826E+00
  1.71668012E+00  0.00000000E+00  2.28828826E+00  1.71668012E+00  0.00000000E+00
  2.28828826E+00  1.71668012E+00  0.00000000E+00  2.28828826E+00  1.71668012E+00
  0.00000000E+00  2.30878423E+00 -9.00979842E-01  0.00000000E+00  2.30878423E+00
 -9.00979842E-01  0.00000000E+00  2.30878423E+00 -9.00979842E-01  0.00000000E+00
  2.30878423E+00 -9.00979842E-01  0.00000000E+00  2.30878423E+00 -9.00979842E-01
  0.00000000E+00  2.30878423E+00 -9.00979842E-01  0.00000000E+00  2.30878423E+00
 -9.00979842E-01  0.00000000E+00  2.30878423E+00 -9.00979842E-01  0.00000000E+00
  2.30878423E+00 -9.00979842E-01  0.00000000E+00  2.30878423E+00 -9.00979842E-01
  0.00000000E+00  2.30878423E+00 -9.00979842E-01  0.00000000E+00  0.00000000E+00
 -2.23749620E+00  0.00000000E+00  0.00000000E+00 -2.23749620E+00  0.00000000E+00
  0.00000000E+00 -2.23749620E+00  0.00000000E+00  0.00000000E+00 -2.23749620E+00
  0.00000000E+00  0.00000000E+00 -2.23749620E+00  0.00000000E+00  0.00000000E+00
 -2.23749620E+00  0.00000000E+00  0.00000000E+00 -2.23749620E+00  0.00000000E+00
  0.00000000E+00 -2.23749620E+00  0.00000000E+00  0.00000000E+00 -2.23749620E+00
  0.00000000E+00  0.00000000E+00 -2.23749620E+00  0.00000000E+00  0.00000000E+00
 -2.23749620E+00  0.00000000E+00 -2.30878423E+00 -9.00979842E-01  0.00000000E+00
 -2.30878423E+00 -9.00979842E-01  0.00000000E+00 -2.30878423E+00 -9.00979842E-01
  0.00000000E+00 -2.30878423E+00 -9.00979842E-01  0.00000000E+00 -2.30878423E+00
 -9.00979842E-01  0.00000000E+00 -2.30878423E+00 -9.00979842E-01  0.00000000E+00
 -2.30878423E+00 -9.00979842E-01  0.00000000E+00 -2.30878423E+00 -9.00979842E-01
  0.00000000E+00 -2.30878423E+00 -9.00979842E-01  0.00000000E+00 -2.30878423E+00
 -9.00979842E-01  0.00000000E+00 -2.30878423E+00 -9.00979842E-01  0.00000000E+00
 -2.28828826E+00  1.71668012E+00  0.00000000E+00 -2.28828826E+00  1.71668012E+00
  0.00000000E+00 -2.28828826E+00  1.71668012E+00  0.00000000E+00 -2.28828826E+00
  1.71668012E+00  0.00000000E+00 -2.28828826E+00  1.71668012E+00  0.00000000E+00
 -2.28828826E+00  1.71668012E+00  0.00000000E+00 -2.28828826E+00  1.71668012E+00
  0.00000000E+00 -2.28828826E+00  1.71668012E+00  0.00000000E+00 -2.28828826E+00
  1.71668012E+00  0.00000000E+00 -2.28828826E+00  1.71668012E+00  0.00000000E+00
 -2.28828826E+00  1.71668012E+00  0.00000000E+00  0.00000000E+00  5.06299014E+00
  0.00000000E+00  0.00000000E+00  5.06299014E+00  0.00000000E+00  0.00000000E+00
  5.06299014E+00  0.00000000E+00  0.00000000E+00  5.06299014E+00  0.00000000E+00
  4.05728923E+00  2.74246504E+00  0.00000000E+00  4.05728923E+00  2.74246504E+00
  0.00000000E+00  4.05728923E+00  2.74246504E+00  0.00000000E+00  4.05728923E+00
  2.74246504E+00  0.00000000E+00  4.10418279E+00 -1.88134897E+00  0.00000000E+00
  4.10418279E+00 -1.88134897E+00  0.00000000E+00  4.10418279E+00 -1.88134897E+00
  0.00000000E+00  4.10418279E+00 -1.88134897E+00  0.00000000E+00 -4.10418279E+00
 -1.88134897E+00  0.00000000E+00 -4.10418279E+00 -1.88134897E+00  0.00000000E+00
 -4.10418279E+00 -1.88134897E+00  0.00000000E+00 -4.10418279E+00 -1.88134897E+00
  0.00000000E+00 -4.05728923E+00  2.74246504E+00  0.00000000E+00 -4.05728923E+00
  2.74246504E+00  0.00000000E+00 -4.05728923E+00  2.74246504E+00  0.00000000E+00
 -4.05728923E+00  2.74246504E+00  0.00000000E+00  0.00000000E+00 -5.31331271E+00
  0.00000000E+00  0.00000000E+00 -5.31331271E+00  0.00000000E+00  0.00000000E+00
 -5.31331271E+00  0.00000000E+00  0.00000000E+00 -5.31331271E+00  0.00000000E+00
  0.00000000E+00 -5.31331271E+00  0.00000000E+00  0.00000000E+00 -5.31331271E+00
  0.00000000E+00  0.00000000E+00 -5.31331271E+00  0.00000000E+00  0.00000000E+00
 -5.31331271E+00  0.00000000E+00  0.00000000E+00 -5.31331271E+00  0.00000000E+00
Num ILSW                                   I              100
ILSW                                       I   N=         100
           0           0           0           0           2           0
           0           0           0           0         402          -1
           5           0           0           0           0           0
           0           0           0           0           0           0
           1           1           0           0           0           0
           0           0      100000           0          -1           0
           0           0           0           0           0           0
           0           0           0           1           0           0
           0 -2000000000           1           0           0           0
           0           0           4          52           0           0
           0           0           5           0           0           0
           0           0           0          12           0           1
           0           0           0           0           0           0
           0           0           0           0           0           0
           0           0           0           0           0           0
           0           0           0           0           0           0
           0           0           0           0
Num RLSW                                   I               52
RLSW                                       R   N=          52
  8.00000000E-01  7.20000000E-01  1.00000000E+00  8.10000000E-01  2.00000000E-01
  0.00000000E+00  0.00000000E+00  1.00000000E+00  0.00000000E+00  0.00000000E+00
  0.00000000E+00  0.00000000E+00  1.00000000E+00  0.00000000E+00  0.00000000E+00
  0.00000000E+00  0.00000000E+00  1.00000000E+00  0.00000000E+00  0.00000000E+00
  0.00000000E+00  0.00000000E+00  1.00000000E+00  0.00000000E+00  0.00000000E+00
  0.00000000E+00  0.00000000E+00  1.00000000E+00  0.00000000E+00  0.00000000E+00
  0.00000000E+00  0.00000000E+00  1.00000000E+00  0.00000000E+00  0.00000000E+00
  0.00000000E+00  0.00000000E+00  0.00000000E+00  1.00000000E+00  1.00000000E+00
  0.00000000E+00  1.00000000E+00  0.00000000E+00  0.00000000E+00  0.00000000E+00
  0.00000000E+00  0.00000000E+00  0.00000000E+00  0.00000000E+00  0.00000000E+00
  0.00000000E+00  0.00000000E+00
ECP-MxAtEC                                 I           250000
ECP-MaxLECP                                I               10
ECP-MaxAtL                                 I          2250000
ECP-MxTECP                                 I         11250000
ECP-LenNCZ                                 I                0
ECP-KFirst                                 I   N=         120
           0           0           0           0           0           0
           0           0           0           0           0           0
           0           0           0           0           0           0
           0           0           0           0           0           0
           0           0           0           0           0           0
           0           0           0           0           0           0
           0           0           0           0           0           0
           0           0           0           0           0           0
           0           0           0           0           0           0
           0           0           0           0           0           0
           0           0           0           0           0           0
           0           0           0           0           0           0
           0           0           0           0           0           0
           0           0           0           0           0           0
           0           0           0           0           0           0
           0           0           0           0           0           0
           0           0           0           0           0           0
           0           0           0           0           0           0
           0           0           0           0           0           0
           0           0           0           0           0           0
ECP-KLast                                  I   N=         120
           0           0           0           0           0           0
           0           0           0           0           0           0
           0           0           0           0           0           0
           0           0           0           0           0           0
           0           0           0           0           0           0
           0           0           0           0           0           0
           0           0           0           0           0           0
           0           0           0           0           0           0
           0           0           0           0           0           0
           0           0           0           0           0           0
           0           0           0           0           0           0
           0           0           0           0           0           0
           0           0           0           0           0           0
           0           0           0           0           0           0
           0           0           0           0           0           0
           0           0           0           0           0           0
           0           0           0           0           0           0
           0           0           0           0           0           0
           0           0           0           0           0           0
           0           0           0           0           0           0
ECP-LMax                                   I   N=          12
           0           0           0           0           0           0
           0           0           0           0           0           0
ECP-LPSkip                                 I   N=          12
           1           1           1           1           1           1
           1           1           1           1           1           1
ECP-RNFroz                                 R   N=          12
  0.00000000E+00  0.00000000E+00  0.00000000E+00  0.00000000E+00  0.00000000E+00
  0.00000000E+00  0.00000000E+00  0.00000000E+00  0.00000000E+00  0.00000000E+00
  0.00000000E+00  0.00000000E+00
ECP-NLP                                    I                0
ECP-CLP1                                   R      0.000000000000000E+00
ECP-CLP2                                   R      0.000000000000000E+00
ECP-ZLP                                    R      0.000000000000000E+00
MxBond                                     I                3
NBond                                      I   N=          12
           3           3           3           3           3           3
           1           1           1           1           1           1
IBond                                      I   N=          36
           2           6           7           1           3           8
           2           4           9           3           5          12
           4           6          10           1           5          11
           1           0           0           2           0           0
           3           0           0           5           0           0
           6           0           0           4           0           0
RBond                                      R   N=          36
  1.50000000E+00  1.50000000E+00  1.00000000E+00  1.50000000E+00  1.50000000E+00
  1.00000000E+00  1.50000000E+00  1.50000000E+00  1.00000000E+00  1.50000000E+00
  1.50000000E+00  1.00000000E+00  1.50000000E+00  1.50000000E+00  1.00000000E+00
  1.50000000E+00  1.50000000E+00  1.00000000E+00  1.00000000E+00  0.00000000E+00
  0.00000000E+00  1.00000000E+00  0.00000000E+00  0.00000000E+00  1.00000000E+00
  0.00000000E+00  0.00000000E+00  1.00000000E+00  0.00000000E+00  0.00000000E+00
  1.00000000E+00  0.00000000E+00  0.00000000E+00  1.00000000E+00  0.00000000E+00
  0.00000000E+00
Virial Ratio                               R      2.005345528154525E+00
SCF Energy                                 R     -2.461367730254136E+02
Total Energy                               R     -2.461367730254136E+02
RMS Density                                R      6.982529426815813E-09
Job Status                                 I                1
Nuclear derivative order                   I                0
External E-field                           R   N=          35
  0.00000000E+00  0.00000000E+00  0.00000000E+00  0.00000000E+00  0.00000000E+00
  0.00000000E+00  0.00000000E+00  0.00000000E+00  0.00000000E+00  0.00000000E+00
  0.00000000E+00  0.00000000E+00  0.00000000E+00  0.00000000E+00  0.00000000E+00
  0.00000000E+00  0.00000000E+00  0.00000000E+00  0.00000000E+00  0.00000000E+00
  0.00000000E+00  0.00000000E+00  0.00000000E+00  0.00000000E+00  0.00000000E+00
  0.00000000E+00  0.00000000E+00  0.00000000E+00  0.00000000E+00  0.00000000E+00
  0.00000000E+00  0.00000000E+00  0.00000000E+00  0.00000000E+00  0.00000000E+00
IOpCl                                      I                0
IROHF                                      I                0
Alpha Orbital Energies                     R   N=         235
 -1.03552854E+01 -1.03514195E+01 -1.03513792E+01 -1.03380763E+01 -1.03318546E+01
 -1.03318179E+01 -4.36218869E+00 -1.01981150E+00 -9.12790851E-01 -9.07593329E-01
 -7.67127540E-01 -7.62374225E-01 -6.81949559E-01 -6.17199218E-01 -6.11273784E-01
 -5.86653289E-01 -5.67162519E-01 -5.36104235E-01 -5.07849715E-01 -4.88876078E-01
 -4.29773447E-01 -4.19644854E-01 -3.50488275E-01 -2.54059058E-01 -2.45462769E-01
 -1.71604886E-01 -1.55034770E-01 -1.13203431E-01 -7.89158484E-02 -6.12381320E-02
 -6.00259963E-02 -3.53498176E-02 -3.50148883E-02 -1.50841139E-02 -8.93233705E-03
  7.12180141E-03  2.59848684E-02  3.07099951E-02  5.67583438E-02  8.15361027E-02
  8.94987082E-02  9.03469147E-02  9.19451021E-02  1.01398208E-01  1.14034750E-01
  1.25183049E-01  1.28429630E-01  1.37306888E-01  1.46609186E-01  1.64173212E-01
  1.87198938E-01  1.96404579E-01  2.03804788E-01  2.12447286E-01  2.24112989E-01
  2.31278228E-01  2.37136172E-01  2.43619517E-01  2.63111116E-01  2.83198321E-01