Single-Point                                                            
SP        RB3LYP                                                      def2TZVP            
Number of atoms                            I               12
Info1-9                                    I   N=           9
          20          19           0           0           0         110
           1          18        -502
Full Title                                 C   N=           1
Single-Point
Route                                      C   N=           4
#P B3LYP/def2tzvp nosymm Density=Current        
Charge                                     I               -1
Multiplicity                               I                1
Number of electrons                        I               50
Number of alpha electrons                  I               25
Number of beta electrons                   I               25
Number of basis functions                  I              247
Number of independent functions            I              247
Number of point charges in /Mol/           I                0
Number of translation vectors              I                0
Atomic numbers                             I   N=          12
           6           6           6           6           6           6
           1           1           1           1           1           8
Nuclear charges                            R   N=          12
  6.00000000E+00  6.00000000E+00  6.00000000E+00  6.00000000E+00  6.00000000E+00
  6.00000000E+00  1.00000000E+00  1.00000000E+00  1.00000000E+00  1.00000000E+00
  1.00000000E+00  8.00000000E+00
Current cartesian coordinates              R   N=          36
  0.00000000E+00 -3.44569226E+00  0.00000000E+00  2.26158887E+00 -2.07421239E+00
  0.00000000E+00  2.28490522E+00  5.40697188E-01  0.00000000E+00  0.00000000E+00
  2.03579632E+00  0.00000000E+00 -2.28490522E+00  5.40697188E-01  0.00000000E+00
 -2.26158887E+00 -2.07421239E+00  0.00000000E+00  0.00000000E+00 -5.49423208E+00
  0.00000000E+00  4.05129680E+00 -3.08880425E+00  0.00000000E+00  4.06244380E+00
  1.56715343E+00  0.00000000E+00 -4.06244380E+00  1.56715343E+00  0.00000000E+00
 -4.05129680E+00 -3.08880425E+00  0.00000000E+00  0.00000000E+00  4.42488649E+00
  0.00000000E+00
Number of symbols in /Mol/                 I                0
Force Field                                I                0
Atom Types                                 C   N=          12
                                                            
                                                            
                        
Int Atom Types                             I   N=          12
           0           0           0           0           0           0
           0           0           0           0           0           0
MM charges                                 R   N=          12
  0.00000000E+00  0.00000000E+00  0.00000000E+00  0.00000000E+00  0.00000000E+00
  0.00000000E+00  0.00000000E+00  0.00000000E+00  0.00000000E+00  0.00000000E+00
  0.00000000E+00  0.00000000E+00
Integer atomic weights                     I   N=          12
          12          12          12          12          12          12
           1           1           1           1           1          16
Real atomic weights                        R   N=          12
  1.20000000E+01  1.20000000E+01  1.20000000E+01  1.20000000E+01  1.20000000E+01
  1.20000000E+01  1.00782504E+00  1.00782504E+00  1.00782504E+00  1.00782504E+00
  1.00782504E+00  1.59949146E+01
Atom fragment info                         I   N=          12
           0           0           0           0           0           0
           0           0           0           0           0           0
Atom residue num                           I   N=          12
           0           0           0           0           0           0
           0           0           0           0           0           0
Nuclear spins                              I   N=          12
           0           0           0           0           0           0
           1           1           1           1           1           0
Nuclear ZEff                               R   N=          12
 -3.60000000E+00 -3.60000000E+00 -3.60000000E+00 -3.60000000E+00 -3.60000000E+00
 -3.60000000E+00 -1.00000000E+00 -1.00000000E+00 -1.00000000E+00 -1.00000000E+00
 -1.00000000E+00 -5.60000000E+00
Nuclear ZNuc                               R   N=          12
  6.00000000E+00  6.00000000E+00  6.00000000E+00  6.00000000E+00  6.00000000E+00
  6.00000000E+00  1.00000000E+00  1.00000000E+00  1.00000000E+00  1.00000000E+00
  1.00000000E+00  8.00000000E+00
Nuclear QMom                               R   N=          12
  0.00000000E+00  0.00000000E+00  0.00000000E+00  0.00000000E+00  0.00000000E+00
  0.00000000E+00  0.00000000E+00  0.00000000E+00  0.00000000E+00  0.00000000E+00
  0.00000000E+00  0.00000000E+00
Nuclear GFac                               R   N=          12
  0.00000000E+00  0.00000000E+00  0.00000000E+00  0.00000000E+00  0.00000000E+00
  0.00000000E+00  2.79284600E+00  2.79284600E+00  2.79284600E+00  2.79284600E+00
  2.79284600E+00  0.00000000E+00
MicOpt                                     I   N=          12
          -1          -1          -1          -1          -1          -1
          -1          -1          -1          -1          -1          -1
Number of residues                         I                0
Number of secondary structures             I                0
Number of contracted shells                I               97
Number of primitive shells                 I              170
Pure/Cartesian d shells                    I                0
Pure/Cartesian f shells                    I                0
Highest angular momentum                   I                3
Largest degree of contraction              I                6
Shell types                                I   N=          97
           0           0           0           0           0           1
           1           1          -2          -2          -3           0
           0           0           0           0           1           1
           1          -2          -2          -3           0           0
           0           0           0           1           1           1
          -2          -2          -3           0           0           0
           0           0           1           1           1          -2
          -2          -3           0           0           0           0
           0           1           1           1          -2          -2
          -3           0           0           0           0           0
           1           1           1          -2          -2          -3
           0           0           0           1           0           0
           0           1           0           0           0           1
           0           0           0           1           0           0
           0           1           0           0           0           0
           0           1           1           1          -2          -2
          -3
Number of primitives per shell             I   N=          97
           6           2           1           1           1           4
           1           1           1           1           1           6
           2           1           1           1           4           1
           1           1           1           1           6           2
           1           1           1           4           1           1
           1           1           1           6           2           1
           1           1           4           1           1           1
           1           1           6           2           1           1
           1           4           1           1           1           1
           1           6           2           1           1           1
           4           1           1           1           1           1
           3           1           1           1           3           1
           1           1           3           1           1           1
           3           1           1           1           3           1
           1           1           6           2           1           1
           1           4           1           1           1           1
           1
Shell to atom map                          I   N=          97
           1           1           1           1           1           1
           1           1           1           1           1           2
           2           2           2           2           2           2
           2           2           2           2           3           3
           3           3           3           3           3           3
           3           3           3           4           4           4
           4           4           4           4           4           4
           4           4           5           5           5           5
           5           5           5           5           5           5
           5           6           6           6           6           6
           6           6           6           6           6           6
           7           7           7           7           8           8
           8           8           9           9           9           9
          10          10          10          10          11          11
          11          11          12          12          12          12
          12          12          12          12          12          12
          12
Primitive exponents                        R   N=         170
  1.35753497E+04  2.03523337E+03  4.63225624E+02  1.31200196E+02  4.28530159E+01
  1.55841858E+01  6.20671385E+00  2.57648965E+00  5.76963394E-01  2.29728314E-01
  9.51644400E-02  3.46972322E+01  7.95826228E+00  2.37808269E+00  8.14332082E-01
  2.88875473E-01  1.00568237E-01  1.09700000E+00  3.18000000E-01  7.61000000E-01
  1.35753497E+04  2.03523337E+03  4.63225624E+02  1.31200196E+02  4.28530159E+01
  1.55841858E+01  6.20671385E+00  2.57648965E+00  5.76963394E-01  2.29728314E-01
  9.51644400E-02  3.46972322E+01  7.95826228E+00  2.37808269E+00  8.14332082E-01
  2.88875473E-01  1.00568237E-01  1.09700000E+00  3.18000000E-01  7.61000000E-01
  1.35753497E+04  2.03523337E+03  4.63225624E+02  1.31200196E+02  4.28530159E+01
  1.55841858E+01  6.20671385E+00  2.57648965E+00  5.76963394E-01  2.29728314E-01
  9.51644400E-02  3.46972322E+01  7.95826228E+00  2.37808269E+00  8.14332082E-01
  2.88875473E-01  1.00568237E-01  1.09700000E+00  3.18000000E-01  7.61000000E-01
  1.35753497E+04  2.03523337E+03  4.63225624E+02  1.31200196E+02  4.28530159E+01
  1.55841858E+01  6.20671385E+00  2.57648965E+00  5.76963394E-01  2.29728314E-01
  9.51644400E-02  3.46972322E+01  7.95826228E+00  2.37808269E+00  8.14332082E-01
  2.88875473E-01  1.00568237E-01  1.09700000E+00  3.18000000E-01  7.61000000E-01
  1.35753497E+04  2.03523337E+03  4.63225624E+02  1.31200196E+02  4.28530159E+01
  1.55841858E+01  6.20671385E+00  2.57648965E+00  5.76963394E-01  2.29728314E-01
  9.51644400E-02  3.46972322E+01  7.95826228E+00  2.37808269E+00  8.14332082E-01
  2.88875473E-01  1.00568237E-01  1.09700000E+00  3.18000000E-01  7.61000000E-01
  1.35753497E+04  2.03523337E+03  4.63225624E+02  1.31200196E+02  4.28530159E+01
  1.55841858E+01  6.20671385E+00  2.57648965E+00  5.76963394E-01  2.29728314E-01
  9.51644400E-02  3.46972322E+01  7.95826228E+00  2.37808269E+00  8.14332082E-01
  2.88875473E-01  1.00568237E-01  1.09700000E+00  3.18000000E-01  7.61000000E-01
  3.40613410E+01  5.12357460E+00  1.16466260E+00  3.27230410E-01  1.03072410E-01
  8.00000000E-01  3.40613410E+01  5.12357460E+00  1.16466260E+00  3.27230410E-01
  1.03072410E-01  8.00000000E-01  3.40613410E+01  5.12357460E+00  1.16466260E+00
  3.27230410E-01  1.03072410E-01  8.00000000E-01  3.40613410E+01  5.12357460E+00
  1.16466260E+00  3.27230410E-01  1.03072410E-01  8.00000000E-01  3.40613410E+01
  5.12357460E+00  1.16466260E+00  3.27230410E-01  1.03072410E-01  8.00000000E-01
  2.70323826E+04  4.05238714E+03  9.22327227E+02  2.61240710E+02  8.53546414E+01
  3.10350352E+01  1.22608607E+01  4.99870760E+00  1.17031082E+00  4.64747410E-01
  1.85045364E-01  6.32749548E+01  1.46270494E+01  4.45012235E+00  1.52757996E+00
  5.29351179E-01  1.74784213E-01  2.31400000E+00  6.45000000E-01  1.42800000E+00
Contraction coefficients                   R   N=         170
  6.06455036E-04  4.69790889E-03  2.43324776E-02  9.73999683E-02  3.01955843E-01
  6.62336091E-01  6.55953085E-01  3.75856333E-01  1.00000000E+00  1.00000000E+00
  1.00000000E+00  1.13272200E-02  7.61696592E-02  3.01922522E-01  7.27850273E-01
  1.00000000E+00  1.00000000E+00  1.00000000E+00  1.00000000E+00  1.00000000E+00
  6.06455036E-04  4.69790889E-03  2.43324776E-02  9.73999683E-02  3.01955843E-01
  6.62336091E-01  6.55953085E-01  3.75856333E-01  1.00000000E+00  1.00000000E+00
  1.00000000E+00  1.13272200E-02  7.61696592E-02  3.01922522E-01  7.27850273E-01
  1.00000000E+00  1.00000000E+00  1.00000000E+00  1.00000000E+00  1.00000000E+00
  6.06455036E-04  4.69790889E-03  2.43324776E-02  9.73999683E-02  3.01955843E-01
  6.62336091E-01  6.55953085E-01  3.75856333E-01  1.00000000E+00  1.00000000E+00
  1.00000000E+00  1.13272200E-02  7.61696592E-02  3.01922522E-01  7.27850273E-01
  1.00000000E+00  1.00000000E+00  1.00000000E+00  1.00000000E+00  1.00000000E+00
  6.06455036E-04  4.69790889E-03  2.43324776E-02  9.73999683E-02  3.01955843E-01
  6.62336091E-01  6.55953085E-01  3.75856333E-01  1.00000000E+00  1.00000000E+00
  1.00000000E+00  1.13272200E-02  7.61696592E-02  3.01922522E-01  7.27850273E-01
  1.00000000E+00  1.00000000E+00  1.00000000E+00  1.00000000E+00  1.00000000E+00
  6.06455036E-04  4.69790889E-03  2.43324776E-02  9.73999683E-02  3.01955843E-01
  6.62336091E-01  6.55953085E-01  3.75856333E-01  1.00000000E+00  1.00000000E+00
  1.00000000E+00  1.13272200E-02  7.61696592E-02  3.01922522E-01  7.27850273E-01
  1.00000000E+00  1.00000000E+00  1.00000000E+00  1.00000000E+00  1.00000000E+00
  6.06455036E-04  4.69790889E-03  2.43324776E-02  9.73999683E-02  3.01955843E-01
  6.62336091E-01  6.55953085E-01  3.75856333E-01  1.00000000E+00  1.00000000E+00
  1.00000000E+00  1.13272200E-02  7.61696592E-02  3.01922522E-01  7.27850273E-01
  1.00000000E+00  1.00000000E+00  1.00000000E+00  1.00000000E+00  1.00000000E+00
  2.54393072E-02  1.90085949E-01  8.52441130E-01  1.00000000E+00  1.00000000E+00
  1.00000000E+00  2.54393072E-02  1.90085949E-01  8.52441130E-01  1.00000000E+00
  1.00000000E+00  1.00000000E+00  2.54393072E-02  1.90085949E-01  8.52441130E-01
  1.00000000E+00  1.00000000E+00  1.00000000E+00  2.54393072E-02  1.90085949E-01
  8.52441130E-01  1.00000000E+00  1.00000000E+00  1.00000000E+00  2.54393072E-02
  1.90085949E-01  8.52441130E-01  1.00000000E+00  1.00000000E+00  1.00000000E+00
  5.72273352E-04  4.43532335E-03  2.30201077E-02  9.28224907E-02  2.93785000E-01
  6.74016045E-01  6.38399370E-01  3.95345871E-01  1.00000000E+00  1.00000000E+00
  1.00000000E+00  1.20183322E-02  8.30054218E-02  3.19917439E-01  7.07155429E-01
  1.00000000E+00  1.00000000E+00  1.00000000E+00  1.00000000E+00  1.00000000E+00
Coordinates of each shell                  R   N=         291
  0.00000000E+00 -3.44569226E+00  0.00000000E+00  0.00000000E+00 -3.44569226E+00
  0.00000000E+00  0.00000000E+00 -3.44569226E+00  0.00000000E+00  0.00000000E+00
 -3.44569226E+00  0.00000000E+00  0.00000000E+00 -3.44569226E+00  0.00000000E+00
  0.00000000E+00 -3.44569226E+00  0.00000000E+00  0.00000000E+00 -3.44569226E+00
  0.00000000E+00  0.00000000E+00 -3.44569226E+00  0.00000000E+00  0.00000000E+00
 -3.44569226E+00  0.00000000E+00  0.00000000E+00 -3.44569226E+00  0.00000000E+00
  0.00000000E+00 -3.44569226E+00  0.00000000E+00  2.26158887E+00 -2.07421239E+00
  0.00000000E+00  2.26158887E+00 -2.07421239E+00  0.00000000E+00  2.26158887E+00
 -2.07421239E+00  0.00000000E+00  2.26158887E+00 -2.07421239E+00  0.00000000E+00
  2.26158887E+00 -2.07421239E+00  0.00000000E+00  2.26158887E+00 -2.07421239E+00
  0.00000000E+00  2.26158887E+00 -2.07421239E+00  0.00000000E+00  2.26158887E+00
 -2.07421239E+00  0.00000000E+00  2.26158887E+00 -2.07421239E+00  0.00000000E+00
  2.26158887E+00 -2.07421239E+00  0.00000000E+00  2.26158887E+00 -2.07421239E+00
  0.00000000E+00  2.28490522E+00  5.40697188E-01  0.00000000E+00  2.28490522E+00
  5.40697188E-01  0.00000000E+00  2.28490522E+00  5.40697188E-01  0.00000000E+00
  2.28490522E+00  5.40697188E-01  0.00000000E+00  2.28490522E+00  5.40697188E-01
  0.00000000E+00  2.28490522E+00  5.40697188E-01  0.00000000E+00  2.28490522E+00
  5.40697188E-01  0.00000000E+00  2.28490522E+00  5.40697188E-01  0.00000000E+00
  2.28490522E+00  5.40697188E-01  0.00000000E+00  2.28490522E+00  5.40697188E-01
  0.00000000E+00  2.28490522E+00  5.40697188E-01  0.00000000E+00  0.00000000E+00
  2.03579632E+00  0.00000000E+00  0.00000000E+00  2.03579632E+00  0.00000000E+00
  0.00000000E+00  2.03579632E+00  0.00000000E+00  0.00000000E+00  2.03579632E+00
  0.00000000E+00  0.00000000E+00  2.03579632E+00  0.00000000E+00  0.00000000E+00
  2.03579632E+00  0.00000000E+00  0.00000000E+00  2.03579632E+00  0.00000000E+00
  0.00000000E+00  2.03579632E+00  0.00000000E+00  0.00000000E+00  2.03579632E+00
  0.00000000E+00  0.00000000E+00  2.03579632E+00  0.00000000E+00  0.00000000E+00
  2.03579632E+00  0.00000000E+00 -2.28490522E+00  5.40697188E-01  0.00000000E+00
 -2.28490522E+00  5.40697188E-01  0.00000000E+00 -2.28490522E+00  5.40697188E-01
  0.00000000E+00 -2.28490522E+00  5.40697188E-01  0.00000000E+00 -2.28490522E+00
  5.40697188E-01  0.00000000E+00 -2.28490522E+00  5.40697188E-01  0.00000000E+00
 -2.28490522E+00  5.40697188E-01  0.00000000E+00 -2.28490522E+00  5.40697188E-01
  0.00000000E+00 -2.28490522E+00  5.40697188E-01  0.00000000E+00 -2.28490522E+00
  5.40697188E-01  0.00000000E+00 -2.28490522E+00  5.40697188E-01  0.00000000E+00
 -2.26158887E+00 -2.07421239E+00  0.00000000E+00 -2.26158887E+00 -2.07421239E+00
  0.00000000E+00 -2.26158887E+00 -2.07421239E+00  0.00000000E+00 -2.26158887E+00
 -2.07421239E+00  0.00000000E+00 -2.26158887E+00 -2.07421239E+00  0.00000000E+00
 -2.26158887E+00 -2.07421239E+00  0.00000000E+00 -2.26158887E+00 -2.07421239E+00
  0.00000000E+00 -2.26158887E+00 -2.07421239E+00  0.00000000E+00 -2.26158887E+00
 -2.07421239E+00  0.00000000E+00 -2.26158887E+00 -2.07421239E+00  0.00000000E+00
 -2.26158887E+00 -2.07421239E+00  0.00000000E+00  0.00000000E+00 -5.49423208E+00
  0.00000000E+00  0.00000000E+00 -5.49423208E+00  0.00000000E+00  0.00000000E+00
 -5.49423208E+00  0.00000000E+00  0.00000000E+00 -5.49423208E+00  0.00000000E+00
  4.05129680E+00 -3.08880425E+00  0.00000000E+00  4.05129680E+00 -3.08880425E+00
  0.00000000E+00  4.05129680E+00 -3.08880425E+00  0.00000000E+00  4.05129680E+00
 -3.08880425E+00  0.00000000E+00  4.06244380E+00  1.56715343E+00  0.00000000E+00
  4.06244380E+00  1.56715343E+00  0.00000000E+00  4.06244380E+00  1.56715343E+00
  0.00000000E+00  4.06244380E+00  1.56715343E+00  0.00000000E+00 -4.06244380E+00
  1.56715343E+00  0.00000000E+00 -4.06244380E+00  1.56715343E+00  0.00000000E+00
 -4.06244380E+00  1.56715343E+00  0.00000000E+00 -4.06244380E+00  1.56715343E+00
  0.00000000E+00 -4.05129680E+00 -3.08880425E+00  0.00000000E+00 -4.05129680E+00
 -3.08880425E+00  0.00000000E+00 -4.05129680E+00 -3.08880425E+00  0.00000000E+00
 -4.05129680E+00 -3.08880425E+00  0.00000000E+00  0.00000000E+00  4.42488649E+00
  0.00000000E+00  0.00000000E+00  4.42488649E+00  0.00000000E+00  0.00000000E+00
  4.42488649E+00  0.00000000E+00  0.00000000E+00  4.42488649E+00  0.00000000E+00
  0.00000000E+00  4.42488649E+00  0.00000000E+00  0.00000000E+00  4.42488649E+00
  0.00000000E+00  0.00000000E+00  4.42488649E+00  0.00000000E+00  0.00000000E+00
  4.42488649E+00  0.00000000E+00  0.00000000E+00  4.42488649E+00  0.00000000E+00
  0.00000000E+00  4.42488649E+00  0.00000000E+00  0.00000000E+00  4.42488649E+00
  0.00000000E+00
Num ILSW                                   I              100
ILSW                                       I   N=         100
           0           0           0           0           2           0
           0           0           0           0         402          -1
           5           0           0           0           0           0
           0           0           0           0           0           0
           1           1           0           0           0           0
           0           0      100000           0          -1           0
           0           0           0           0           0           0
           0           0           0           1           0           0
           0 -2000000000           1           0           0           0
           0           0           4          52           0           0
           0           0           5           0           0           0
           0           0           0          12           0           1
           0           0           0           0           0           0
           0           0           0           0           0           0
           0           0           0           0           0           0
           0           0           0           0           0           0
           0           0           0           0
Num RLSW                                   I               52
RLSW                                       R   N=          52
  8.00000000E-01  7.20000000E-01  1.00000000E+00  8.10000000E-01  2.00000000E-01
  0.00000000E+00  0.00000000E+00  1.00000000E+00  0.00000000E+00  0.00000000E+00
  0.00000000E+00  0.00000000E+00  1.00000000E+00  0.00000000E+00  0.00000000E+00
  0.00000000E+00  0.00000000E+00  1.00000000E+00  0.00000000E+00  0.00000000E+00
  0.00000000E+00  0.00000000E+00  1.00000000E+00  0.00000000E+00  0.00000000E+00
  0.00000000E+00  0.00000000E+00  1.00000000E+00  0.00000000E+00  0.00000000E+00
  0.00000000E+00  0.00000000E+00  1.00000000E+00  0.00000000E+00  0.00000000E+00
  0.00000000E+00  0.00000000E+00  0.00000000E+00  1.00000000E+00  1.00000000E+00
  0.00000000E+00  1.00000000E+00  0.00000000E+00  0.00000000E+00  0.00000000E+00
  0.00000000E+00  0.00000000E+00  0.00000000E+00  0.00000000E+00  0.00000000E+00
  0.00000000E+00  0.00000000E+00
ECP-MxAtEC                                 I           250000
ECP-MaxLECP                                I               10
ECP-MaxAtL                                 I          2250000
ECP-MxTECP                                 I         11250000
ECP-LenNCZ                                 I                0
ECP-KFirst                                 I   N=         120
           0           0           0           0           0           0
           0           0           0           0           0           0
           0           0           0           0           0           0
           0           0           0           0           0           0
           0           0           0           0           0           0
           0           0           0           0           0           0
           0           0           0           0           0           0
           0           0           0           0           0           0
           0           0           0           0           0           0
           0           0           0           0           0           0
           0           0           0           0           0           0
           0           0           0           0           0           0
           0           0           0           0           0           0
           0           0           0           0           0           0
           0           0           0           0           0           0
           0           0           0           0           0           0
           0           0           0           0           0           0
           0           0           0           0           0           0
           0           0           0           0           0           0
           0           0           0           0           0           0
ECP-KLast                                  I   N=         120
           0           0           0           0           0           0
           0           0           0           0           0           0
           0           0           0           0           0           0
           0           0           0           0           0           0
           0           0           0           0           0           0
           0           0           0           0           0           0
           0           0           0           0           0           0
           0           0           0           0           0           0
           0           0           0           0           0           0
           0           0           0           0           0           0
           0           0           0           0           0           0
           0           0           0           0           0           0
           0           0           0           0           0           0
           0           0           0           0           0           0
           0           0           0           0           0           0
           0           0           0           0           0           0
           0           0           0           0           0           0
           0           0           0           0           0           0
           0           0           0           0           0           0
           0           0           0           0           0           0
ECP-LMax                                   I   N=          12
           0           0           0           0           0           0
           0           0           0           0           0           0
ECP-LPSkip                                 I   N=          12
           1           1           1           1           1           1
           1           1           1           1           1           1
ECP-RNFroz                                 R   N=          12
  0.00000000E+00  0.00000000E+00  0.00000000E+00  0.00000000E+00  0.00000000E+00
  0.00000000E+00  0.00000000E+00  0.00000000E+00  0.00000000E+00  0.00000000E+00
  0.00000000E+00  0.00000000E+00
ECP-NLP                                    I                0
ECP-CLP1                                   R      0.000000000000000E+00
ECP-CLP2                                   R      0.000000000000000E+00
ECP-ZLP                                    R      0.000000000000000E+00
MxBond                                     I                3
NBond                                      I   N=          12
           3           3           3           3           3           3
           1           1           1           1           1           1
IBond                                      I   N=          36
           2           6           7           1           3           8
           2           4           9           3           5          12
           4           6          10           1           5          11
           1           0           0           2           0           0
           3           0           0           5           0           0
           6           0           0           4           0           0
RBond                                      R   N=          36
  1.50000000E+00  1.50000000E+00  1.00000000E+00  1.50000000E+00  1.50000000E+00
  1.00000000E+00  1.50000000E+00  1.00000000E+00  1.00000000E+00  1.00000000E+00
  1.00000000E+00  2.00000000E+00  1.00000000E+00  1.50000000E+00  1.00000000E+00
  1.50000000E+00  1.50000000E+00  1.00000000E+00  1.00000000E+00  0.00000000E+00
  0.00000000E+00  1.00000000E+00  0.00000000E+00  0.00000000E+00  1.00000000E+00
  0.00000000E+00  0.00000000E+00  1.00000000E+00  0.00000000E+00  0.00000000E+00
  1.00000000E+00  0.00000000E+00  0.00000000E+00  2.00000000E+00  0.00000000E+00
  0.00000000E+00
Virial Ratio                               R      2.004830946263758E+00
SCF Energy                                 R     -3.070240005294226E+02
Total Energy                               R     -3.070240005294226E+02
RMS Density                                R      1.253525069004480E-09
Job Status                                 I                1
Nuclear derivative order                   I                0
External E-field                           R   N=          35
  0.00000000E+00  0.00000000E+00  0.00000000E+00  0.00000000E+00  0.00000000E+00
  0.00000000E+00  0.00000000E+00  0.00000000E+00  0.00000000E+00  0.00000000E+00
  0.00000000E+00  0.00000000E+00  0.00000000E+00  0.00000000E+00  0.00000000E+00
  0.00000000E+00  0.00000000E+00  0.00000000E+00  0.00000000E+00  0.00000000E+00
  0.00000000E+00  0.00000000E+00  0.00000000E+00  0.00000000E+00  0.00000000E+00
  0.00000000E+00  0.00000000E+00  0.00000000E+00  0.00000000E+00  0.00000000E+00
  0.00000000E+00  0.00000000E+00  0.00000000E+00  0.00000000E+00  0.00000000E+00
IOpCl                                      I                0
IROHF                                      I                0
Alpha Orbital Energies                     R   N=         247
 -1.88619357E+01 -1.00299035E+01 -1.00028099E+01 -1.00028055E+01 -9.98739577E+00
 -9.97779520E+00 -9.97778075E+00 -7.82881303E-01 -6.57858938E-01 -5.64985640E-01
 -5.30790799E-01 -4.21995582E-01 -4.01991789E-01 -3.30888149E-01 -2.74611695E-01
 -2.74582596E-01 -2.42608426E-01 -2.18648255E-01 -2.02057594E-01 -1.77834146E-01
 -1.68733157E-01 -1.35180521E-01 -8.12462510E-02 -3.41504353E-02 -4.87233404E-03
  1.65538999E-01  1.88609970E-01  1.95833025E-01  2.12439466E-01  2.30050280E-01
  2.49330585E-01  2.57445278E-01  3.00134652E-01  3.27158452E-01  3.32752095E-01
  3.54735570E-01  3.60973581E-01  3.66660149E-01  3.86077942E-01  4.02361396E-01
  4.03657154E-01  4.18510894E-01  4.23621526E-01  4.44645817E-01  4.86488631E-01