 Entering Gaussian System, Link 0=g16
 Initial command:
 /sw/cluster/pub/apps//g16/l1.exe "/data/mmaximo/27732/Gau-1914569.inp" -scrdir="/data/mmaximo/27732/"
 Entering Link 1 = /sw/cluster/pub/apps//g16/l1.exe PID=   1914570.
  
 Copyright (c) 1988,1990,1992,1993,1995,1998,2003,2009,2016,
            Gaussian, Inc.  All Rights Reserved.
  
 This is part of the Gaussian(R) 16 program.  It is based on
 the Gaussian(R) 09 system (copyright 2009, Gaussian, Inc.),
 the Gaussian(R) 03 system (copyright 2003, Gaussian, Inc.),
 the Gaussian(R) 98 system (copyright 1998, Gaussian, Inc.),
 the Gaussian(R) 94 system (copyright 1995, Gaussian, Inc.),
 the Gaussian 92(TM) system (copyright 1992, Gaussian, Inc.),
 the Gaussian 90(TM) system (copyright 1990, Gaussian, Inc.),
 the Gaussian 88(TM) system (copyright 1988, Gaussian, Inc.),
 the Gaussian 86(TM) system (copyright 1986, Carnegie Mellon
 University), and the Gaussian 82(TM) system (copyright 1983,
 Carnegie Mellon University). Gaussian is a federally registered
 trademark of Gaussian, Inc.
  
 This software contains proprietary and confidential information,
 including trade secrets, belonging to Gaussian, Inc.
  
 This software is provided under written license and may be
 used, copied, transmitted, or stored only in accord with that
 written license.
  
 The following legend is applicable only to US Government
 contracts under FAR:
  
                    RESTRICTED RIGHTS LEGEND
  
 Use, reproduction and disclosure by the US Government is
 subject to restrictions as set forth in subparagraphs (a)
 and (c) of the Commercial Computer Software - Restricted
 Rights clause in FAR 52.227-19.
  
 Gaussian, Inc.
 340 Quinnipiac St., Bldg. 40, Wallingford CT 06492
  
  
 ---------------------------------------------------------------
 Warning -- This program may not be used in any manner that
 competes with the business of Gaussian, Inc. or will provide
 assistance to any competitor of Gaussian, Inc.  The licensee
 of this program is prohibited from giving any competitor of
 Gaussian, Inc. access to this program.  By using this program,
 the user acknowledges that Gaussian, Inc. is engaged in the
 business of creating and licensing software in the field of
 computational chemistry and represents and warrants to the
 licensee that it is not a competitor of Gaussian, Inc. and that
 it will not use this program in any manner prohibited above.
 ---------------------------------------------------------------
  

 Cite this work as:
 Gaussian 16, Revision A.03,
 M. J. Frisch, G. W. Trucks, H. B. Schlegel, G. E. Scuseria, 
 M. A. Robb, J. R. Cheeseman, G. Scalmani, V. Barone, 
 G. A. Petersson, H. Nakatsuji, X. Li, M. Caricato, A. V. Marenich, 
 J. Bloino, B. G. Janesko, R. Gomperts, B. Mennucci, H. P. Hratchian, 
 J. V. Ortiz, A. F. Izmaylov, J. L. Sonnenberg, D. Williams-Young, 
 F. Ding, F. Lipparini, F. Egidi, J. Goings, B. Peng, A. Petrone, 
 T. Henderson, D. Ranasinghe, V. G. Zakrzewski, J. Gao, N. Rega, 
 G. Zheng, W. Liang, M. Hada, M. Ehara, K. Toyota, R. Fukuda, 
 J. Hasegawa, M. Ishida, T. Nakajima, Y. Honda, O. Kitao, H. Nakai, 
 T. Vreven, K. Throssell, J. A. Montgomery, Jr., J. E. Peralta, 
 F. Ogliaro, M. J. Bearpark, J. J. Heyd, E. N. Brothers, K. N. Kudin, 
 V. N. Staroverov, T. A. Keith, R. Kobayashi, J. Normand, 
 K. Raghavachari, A. P. Rendell, J. C. Burant, S. S. Iyengar, 
 J. Tomasi, M. Cossi, J. M. Millam, M. Klene, C. Adamo, R. Cammi, 
 J. W. Ochterski, R. L. Martin, K. Morokuma, O. Farkas, 
 J. B. Foresman, and D. J. Fox, Gaussian, Inc., Wallingford CT, 2016.
 
 ******************************************
 Gaussian 16:  ES64L-G16RevA.03 25-Dec-2016
                14-Jan-2025 
 ******************************************
 %chk=C6H6.chk
 ----------------------------------------
 #P B3LYP/def2tzvp nosymm Density=Current
 ----------------------------------------
 1/30=1,38=1,172=1/1;
 2/12=2,15=1,17=6,18=5,40=1/2;
 3/5=44,7=101,11=2,25=1,30=1,74=-5/1,2,3;
 4//1;
 5/5=2,38=5/2;
 6/7=2,8=2,9=2,10=2,22=-1,28=1/1;
 99/5=1,9=1/99;
 Leave Link    1 at Tue Jan 14 13:26:27 2025, MaxMem=           0 cpu:               0.0 elap:               0.0
 (Enter /sw/cluster/pub/apps//g16/l101.exe)
 ------------
 Single-Point
 ------------
 Symbolic Z-matrix:
 Charge =  0 Multiplicity = 1
 C                     1.20467   0.69551   0. 
 C                     0.        1.39103   0. 
 C                    -1.20467   0.69551   0. 
 C                    -1.20467  -0.69551   0. 
 C                     0.       -1.39103   0. 
 C                     1.20467  -0.69551   0. 
 H                     2.14254   1.237     0. 
 H                     0.        2.47398   0. 
 H                    -2.14254   1.237     0. 
 H                    -2.14254  -1.237     0. 
 H                     0.       -2.47398   0. 
 H                     2.14254  -1.237     0. 
 
 ITRead=  0  0  0  0  0  0  0  0  0  0  0  0
 MicOpt= -1 -1 -1 -1 -1 -1 -1 -1 -1 -1 -1 -1
 NAtoms=     12 NQM=       12 NQMF=       0 NMMI=      0 NMMIF=      0
                NMic=       0 NMicF=      0.
                    Isotopes and Nuclear Properties:
 (Nuclear quadrupole moments (NQMom) in fm**2, nuclear magnetic moments (NMagM)
  in nuclear magnetons)

  Atom         1           2           3           4           5           6           7           8           9          10
 IAtWgt=          12          12          12          12          12          12           1           1           1           1
 AtmWgt=  12.0000000  12.0000000  12.0000000  12.0000000  12.0000000  12.0000000   1.0078250   1.0078250   1.0078250   1.0078250
 NucSpn=           0           0           0           0           0           0           1           1           1           1
 AtZEff=  -0.0000000  -0.0000000  -0.0000000  -0.0000000  -0.0000000  -0.0000000  -0.0000000  -0.0000000  -0.0000000  -0.0000000
 NQMom=    0.0000000   0.0000000   0.0000000   0.0000000   0.0000000   0.0000000   0.0000000   0.0000000   0.0000000   0.0000000
 NMagM=    0.0000000   0.0000000   0.0000000   0.0000000   0.0000000   0.0000000   2.7928460   2.7928460   2.7928460   2.7928460
 AtZNuc=   6.0000000   6.0000000   6.0000000   6.0000000   6.0000000   6.0000000   1.0000000   1.0000000   1.0000000   1.0000000

  Atom        11          12
 IAtWgt=           1           1
 AtmWgt=   1.0078250   1.0078250
 NucSpn=           1           1
 AtZEff=  -0.0000000  -0.0000000
 NQMom=    0.0000000   0.0000000
 NMagM=    2.7928460   2.7928460
 AtZNuc=   1.0000000   1.0000000
 Leave Link  101 at Tue Jan 14 13:26:27 2025, MaxMem=   104857600 cpu:               0.0 elap:               0.0
 (Enter /sw/cluster/pub/apps//g16/l202.exe)
                          Input orientation:                          
 ---------------------------------------------------------------------
 Center     Atomic      Atomic             Coordinates (Angstroms)
 Number     Number       Type             X           Y           Z
 ---------------------------------------------------------------------
      1          6           0        1.204672    0.695514    0.000000
      2          6           0        0.000000    1.391026    0.000000
      3          6           0       -1.204672    0.695514    0.000000
      4          6           0       -1.204672   -0.695514    0.000000
      5          6           0        0.000000   -1.391026    0.000000
      6          6           0        1.204672   -0.695514    0.000000
      7          1           0        2.142538    1.237000    0.000000
      8          1           0        0.000000    2.473984    0.000000
      9          1           0       -2.142538    1.237000    0.000000
     10          1           0       -2.142538   -1.237000    0.000000
     11          1           0        0.000000   -2.473984    0.000000
     12          1           0        2.142538   -1.237000    0.000000
 ---------------------------------------------------------------------
                    Distance matrix (angstroms):
                    1          2          3          4          5
     1  C    0.000000
     2  C    1.391033   0.000000
     3  C    2.409344   1.391033   0.000000
     4  C    2.782066   2.409333   1.391028   0.000000
     5  C    2.409333   2.782053   2.409333   1.391033   0.000000
     6  C    1.391028   2.409333   2.782066   2.409344   1.391033
     7  H    1.082959   2.148067   3.390725   3.865025   3.390721
     8  H    2.148067   1.082958   2.148067   3.390716   3.865011
     9  H    3.390725   2.148067   1.082959   2.148069   3.390721
    10  H    3.865025   3.390721   2.148069   1.082959   2.148067
    11  H    3.390716   3.865011   3.390716   2.148067   1.082958
    12  H    2.148069   3.390721   3.865025   3.390725   2.148067
                    6          7          8          9         10
     6  C    0.000000
     7  H    2.148069   0.000000
     8  H    3.390716   2.473985   0.000000
     9  H    3.865025   4.285075   2.473985   0.000000
    10  H    3.390725   4.947984   4.285075   2.473999   0.000000
    11  H    2.148067   4.285075   4.947969   4.285075   2.473985
    12  H    1.082959   2.473999   4.285075   4.947984   4.285075
                   11         12
    11  H    0.000000
    12  H    2.473985   0.000000
 Symmetry turned off by external request.
 Stoichiometry    C6H6
 Framework group  D2H[C2"(HC.CH),SG(C4H4)]
 Deg. of freedom     6
 Full point group                 D2H     NOp   8
 Rotational constants (GHZ):           5.7322640           5.7322091           2.8661183
 Leave Link  202 at Tue Jan 14 13:26:27 2025, MaxMem=   104857600 cpu:               0.0 elap:               0.0
 (Enter /sw/cluster/pub/apps//g16/l301.exe)
 Standard basis: def2TZVP (5D, 7F)
 Ernie: Thresh=  0.10000D-02 Tol=  0.10000D-05 Strict=F.
   222 basis functions,   354 primitive gaussians,   252 cartesian basis functions
    21 alpha electrons       21 beta electrons
       nuclear repulsion energy       203.9941871599 Hartrees.
 IExCor=  402 DFT=T Ex+Corr=B3LYP ExCW=0 ScaHFX=  0.200000
 ScaDFX=  0.800000  0.720000  1.000000  0.810000 ScalE2=  1.000000  1.000000
 IRadAn=      5 IRanWt=     -1 IRanGd=            0 ICorTp=0 IEmpDi=  4
 NAtoms=   12 NActive=   12 NUniq=   12 SFac= 1.00D+00 NAtFMM=   60 NAOKFM=F Big=F
 Integral buffers will be    131072 words long.
 Raffenetti 2 integral format.
 Two-electron integral symmetry is turned off.
 Leave Link  301 at Tue Jan 14 13:26:27 2025, MaxMem=   104857600 cpu:               0.0 elap:               0.0
 (Enter /sw/cluster/pub/apps//g16/l302.exe)
 NPDir=0 NMtPBC=     1 NCelOv=     1 NCel=       1 NClECP=     1 NCelD=      1
         NCelK=      1 NCelE2=     1 NClLst=     1 CellRange=     0.0.
 One-electron integrals computed using PRISM.
   1 Symmetry operations used in ECPInt.
 ECPInt:  NShTT=    4095 NPrTT=   12396 LenC2=    4075 LenP2D=   10419.
 LDataN:  DoStor=T MaxTD1= 6 Len=  172
 NBasis=   222 RedAO= T EigKep=  1.00D-05  NBF=   222
 NBsUse=   222 1.00D-06 EigRej= -1.00D+00 NBFU=   222
 Precomputing XC quadrature grid using
 IXCGrd= 4 IRadAn=           5 IRanWt=          -1 IRanGd=           0 AccXCQ= 0.00D+00.
 Generated NRdTot=       0 NPtTot=           0 NUsed=           0 NTot=          32
 NSgBfM=   251   251   251   251   251 MxSgAt=    12 MxSgA2=    12.
 Leave Link  302 at Tue Jan 14 13:26:27 2025, MaxMem=   104857600 cpu:               0.1 elap:               0.1
 (Enter /sw/cluster/pub/apps//g16/l303.exe)
 DipDrv:  MaxL=1.
 Leave Link  303 at Tue Jan 14 13:26:27 2025, MaxMem=   104857600 cpu:               0.0 elap:               0.0
 (Enter /sw/cluster/pub/apps//g16/l401.exe)
 ExpMin= 9.52D-02 ExpMax= 1.36D+04 ExpMxC= 4.63D+02 IAcc=3 IRadAn=         5 AccDes= 0.00D+00
 Harris functional with IExCor=  402 and IRadAn=       5 diagonalized for initial guess.
 HarFok:  IExCor=  402 AccDes= 0.00D+00 IRadAn=         5 IDoV= 1 UseB2=F ITyADJ=14
 ICtDFT=  3500011 ScaDFX=  1.000000  1.000000  1.000000  1.000000
 FoFCou: FMM=F IPFlag=           0 FMFlag=      100000 FMFlg1=           0
         NFxFlg=           0 DoJE=T BraDBF=F KetDBF=T FulRan=T
         wScrn=  0.000000 ICntrl=       500 IOpCl=  0 I1Cent=   200000004 NGrid=           0
         NMat0=    1 NMatS0=      1 NMatT0=    0 NMatD0=    1 NMtDS0=    0 NMtDT0=    0
 Symmetry not used in FoFCou.
 Harris En= -232.384991489380    
 JPrj=0 DoOrth=F DoCkMO=F.
 Leave Link  401 at Tue Jan 14 13:26:28 2025, MaxMem=   104857600 cpu:               1.5 elap:               1.6
 (Enter /sw/cluster/pub/apps//g16/l502.exe)
 Two-electron integral symmetry not used.
 Closed shell SCF:
 Using DIIS extrapolation, IDIIS=  1040.
 NGot=   104857600 LenX=   104727300 LenY=   104663355
 Requested convergence on RMS density matrix=1.00D-08 within 128 cycles.
 Requested convergence on MAX density matrix=1.00D-06.
 Requested convergence on             energy=1.00D-06.
 No special actions if energy rises.
 Fock matrices will be formed incrementally for  20 cycles.
 Integral accuracy reduced to 1.0D-05 until final iterations.

 Cycle   1  Pass 0  IDiag  1:
 FoFJK:  IHMeth= 1 ICntrl=       0 DoSepK=F KAlg= 0 I1Cent=           0 FoldK=F
 IRaf= 980000000 NMat=       1 IRICut=       1 DoRegI=T DoRafI=F ISym2E= 0 IDoP0=0 IntGTp=1.
 FoFCou: FMM=F IPFlag=           0 FMFlag=      100000 FMFlg1=           0
         NFxFlg=           0 DoJE=F BraDBF=F KetDBF=F FulRan=T
         wScrn=  0.000000 ICntrl=         0 IOpCl=  0 I1Cent=           0 NGrid=           0
         NMat0=    1 NMatS0=      1 NMatT0=    0 NMatD0=    1 NMtDS0=    0 NMtDT0=    0
 Symmetry not used in FoFCou.
 E= -232.156298009153    
 DIIS: error= 3.44D-02 at cycle   1 NSaved=   1.
 NSaved= 1 IEnMin= 1 EnMin= -232.156298009153     IErMin= 1 ErrMin= 3.44D-02
 ErrMax= 3.44D-02  0.00D+00 EMaxC= 1.00D-01 BMatC= 1.74D-01 BMatP= 1.74D-01
 IDIUse=3 WtCom= 6.56D-01 WtEn= 3.44D-01
 Coeff-Com:  0.100D+01
 Coeff-En:   0.100D+01
 Coeff:      0.100D+01
 Gap=     0.245 Goal=   None    Shift=    0.000
 GapD=    0.245 DampG=1.000 DampE=0.500 DampFc=0.5000 IDamp=-1.
 Damping current iteration by 5.00D-01
 RMSDP=3.53D-03 MaxDP=5.68D-02              OVMax= 1.81D-01

 Cycle   2  Pass 0  IDiag  1:
 RMSU=  1.68D-03    CP:  9.47D-01
 E= -232.232713390969     Delta-E=       -0.076415381816 Rises=F Damp=T
 DIIS: error= 1.05D-02 at cycle   2 NSaved=   2.
 NSaved= 2 IEnMin= 2 EnMin= -232.232713390969     IErMin= 2 ErrMin= 1.05D-02
 ErrMax= 1.05D-02  0.00D+00 EMaxC= 1.00D-01 BMatC= 1.00D-02 BMatP= 1.74D-01
 IDIUse=3 WtCom= 8.95D-01 WtEn= 1.05D-01
 Coeff-Com:  0.517D-01 0.948D+00
 Coeff-En:   0.139D+00 0.861D+00
 Coeff:      0.609D-01 0.939D+00
 Gap=     0.310 Goal=   None    Shift=    0.000
 RMSDP=9.14D-04 MaxDP=1.44D-02 DE=-7.64D-02 OVMax= 1.06D-01

 Cycle   3  Pass 0  IDiag  1:
 RMSU=  9.02D-04    CP:  9.37D-01  9.35D-01
 E= -232.334342457803     Delta-E=       -0.101629066835 Rises=F Damp=F
 DIIS: error= 7.85D-03 at cycle   3 NSaved=   3.
 NSaved= 3 IEnMin= 3 EnMin= -232.334342457803     IErMin= 3 ErrMin= 7.85D-03
 ErrMax= 7.85D-03  0.00D+00 EMaxC= 1.00D-01 BMatC= 3.09D-03 BMatP= 1.00D-02
 IDIUse=3 WtCom= 9.22D-01 WtEn= 7.85D-02
 Coeff-Com: -0.420D-01 0.326D+00 0.716D+00
 Coeff-En:   0.000D+00 0.000D+00 0.100D+01
 Coeff:     -0.387D-01 0.300D+00 0.739D+00
 Gap=     0.245 Goal=   None    Shift=    0.000
 RMSDP=1.85D-04 MaxDP=3.28D-03 DE=-1.02D-01 OVMax= 1.26D-02

 Cycle   4  Pass 0  IDiag  1:
 RMSU=  1.42D-04    CP:  9.35D-01  9.83D-01  9.06D-01
 E= -232.337289488794     Delta-E=       -0.002947030990 Rises=F Damp=F
 DIIS: error= 9.90D-04 at cycle   4 NSaved=   4.
 NSaved= 4 IEnMin= 4 EnMin= -232.337289488794     IErMin= 4 ErrMin= 9.90D-04
 ErrMax= 9.90D-04  0.00D+00 EMaxC= 1.00D-01 BMatC= 7.76D-05 BMatP= 3.09D-03
 IDIUse=3 WtCom= 9.90D-01 WtEn= 9.90D-03
 Coeff-Com: -0.121D-01 0.264D-01 0.177D+00 0.808D+00
 Coeff-En:   0.000D+00 0.000D+00 0.000D+00 0.100D+01
 Coeff:     -0.120D-01 0.262D-01 0.176D+00 0.810D+00
 Gap=     0.245 Goal=   None    Shift=    0.000
 RMSDP=4.77D-05 MaxDP=5.51D-04 DE=-2.95D-03 OVMax= 1.50D-03

 Cycle   5  Pass 0  IDiag  1:
 RMSU=  2.26D-05    CP:  9.34D-01  9.95D-01  9.41D-01  8.77D-01
 E= -232.337358274999     Delta-E=       -0.000068786205 Rises=F Damp=F
 DIIS: error= 3.83D-05 at cycle   5 NSaved=   5.
 NSaved= 5 IEnMin= 5 EnMin= -232.337358274999     IErMin= 5 ErrMin= 3.83D-05
 ErrMax= 3.83D-05  0.00D+00 EMaxC= 1.00D-01 BMatC= 1.35D-07 BMatP= 7.76D-05
 IDIUse=1 WtCom= 1.00D+00 WtEn= 0.00D+00
 Coeff-Com: -0.324D-03-0.121D-02 0.698D-02 0.650D-01 0.930D+00
 Coeff:     -0.324D-03-0.121D-02 0.698D-02 0.650D-01 0.930D+00
 Gap=     0.245 Goal=   None    Shift=    0.000
 RMSDP=6.27D-06 MaxDP=7.33D-05 DE=-6.88D-05 OVMax= 8.78D-05

 Initial convergence to 1.0D-05 achieved.  Increase integral accuracy.
 Cycle   6  Pass 1  IDiag  1:
 E= -232.337355109255     Delta-E=        0.000003165744 Rises=F Damp=F
 DIIS: error= 5.15D-05 at cycle   1 NSaved=   1.
 NSaved= 1 IEnMin= 1 EnMin= -232.337355109255     IErMin= 1 ErrMin= 5.15D-05
 ErrMax= 5.15D-05  0.00D+00 EMaxC= 1.00D-01 BMatC= 6.00D-08 BMatP= 6.00D-08
 IDIUse=1 WtCom= 1.00D+00 WtEn= 0.00D+00
 Coeff-Com:  0.100D+01
 Coeff:      0.100D+01
 Gap=     0.245 Goal=   None    Shift=    0.000
 RMSDP=6.27D-06 MaxDP=7.33D-05 DE= 3.17D-06 OVMax= 3.90D-05

 Cycle   7  Pass 1  IDiag  1:
 RMSU=  4.94D-05    CP:  1.00D+00
 E= -232.337355132217     Delta-E=       -0.000000022962 Rises=F Damp=F
 DIIS: error= 2.13D-06 at cycle   2 NSaved=   2.
 NSaved= 2 IEnMin= 2 EnMin= -232.337355132217     IErMin= 2 ErrMin= 2.13D-06
 ErrMax= 2.13D-06  0.00D+00 EMaxC= 1.00D-01 BMatC= 2.14D-10 BMatP= 6.00D-08
 IDIUse=1 WtCom= 1.00D+00 WtEn= 0.00D+00
 Coeff-Com: -0.132D-02 0.100D+01
 Coeff:     -0.132D-02 0.100D+01
 Gap=     0.245 Goal=   None    Shift=    0.000
 RMSDP=1.12D-06 MaxDP=1.56D-05 DE=-2.30D-08 OVMax= 6.42D-06

 Cycle   8  Pass 1  IDiag  1:
 RMSU=  1.57D-07    CP:  1.00D+00  1.02D+00
 E= -232.337355132161     Delta-E=        0.000000000056 Rises=F Damp=F
 DIIS: error= 1.87D-06 at cycle   3 NSaved=   3.
 NSaved= 3 IEnMin= 2 EnMin= -232.337355132217     IErMin= 3 ErrMin= 1.87D-06
 ErrMax= 1.87D-06  0.00D+00 EMaxC= 1.00D-01 BMatC= 2.74D-10 BMatP= 2.14D-10
 IDIUse=1 WtCom= 1.00D+00 WtEn= 0.00D+00
 Coeff-Com: -0.395D-02 0.535D+00 0.469D+00
 Coeff:     -0.395D-02 0.535D+00 0.469D+00
 Gap=     0.245 Goal=   None    Shift=    0.000
 RMSDP=5.14D-08 MaxDP=1.23D-06 DE= 5.57D-11 OVMax= 4.02D-06

 Cycle   9  Pass 1  IDiag  1:
 RMSU=  4.47D-08    CP:  1.00D+00  1.02D+00  8.49D-01
 E= -232.337355132431     Delta-E=       -0.000000000270 Rises=F Damp=F
 DIIS: error= 1.44D-07 at cycle   4 NSaved=   4.
 NSaved= 4 IEnMin= 4 EnMin= -232.337355132431     IErMin= 4 ErrMin= 1.44D-07
 ErrMax= 1.44D-07  0.00D+00 EMaxC= 1.00D-01 BMatC= 2.64D-12 BMatP= 2.14D-10
 IDIUse=1 WtCom= 1.00D+00 WtEn= 0.00D+00
 Coeff-Com: -0.119D-02 0.138D+00 0.157D+00 0.706D+00
 Coeff:     -0.119D-02 0.138D+00 0.157D+00 0.706D+00
 Gap=     0.245 Goal=   None    Shift=    0.000
 RMSDP=1.34D-08 MaxDP=2.02D-07 DE=-2.70D-10 OVMax= 6.17D-07

 Cycle  10  Pass 1  IDiag  1:
 RMSU=  5.73D-09    CP:  1.00D+00  1.02D+00  8.67D-01  9.66D-01
 E= -232.337355132435     Delta-E=       -0.000000000004 Rises=F Damp=F
 DIIS: error= 6.64D-08 at cycle   5 NSaved=   5.
 NSaved= 5 IEnMin= 5 EnMin= -232.337355132435     IErMin= 5 ErrMin= 6.64D-08
 ErrMax= 6.64D-08  0.00D+00 EMaxC= 1.00D-01 BMatC= 4.11D-13 BMatP= 2.64D-12
 IDIUse=1 WtCom= 1.00D+00 WtEn= 0.00D+00
 Coeff-Com: -0.258D-03 0.235D-01 0.379D-01 0.328D+00 0.611D+00
 Coeff:     -0.258D-03 0.235D-01 0.379D-01 0.328D+00 0.611D+00
 Gap=     0.245 Goal=   None    Shift=    0.000
 RMSDP=3.94D-09 MaxDP=5.45D-08 DE=-4.21D-12 OVMax= 2.41D-07

 SCF Done:  E(RB3LYP) =  -232.337355132     A.U. after   10 cycles
            NFock= 10  Conv=0.39D-08     -V/T= 2.0053
 KE= 2.311063672368D+02 PE=-9.464613978869D+02 EE= 2.790234883577D+02
 Leave Link  502 at Tue Jan 14 13:27:10 2025, MaxMem=   104857600 cpu:              41.6 elap:              41.7
 (Enter /sw/cluster/pub/apps//g16/l601.exe)
 Copying SCF densities to generalized density rwf, IOpCl= 0 IROHF=0.

 **********************************************************************

            Population analysis using the SCF density.

 **********************************************************************

 Alpha  occ. eigenvalues --  -10.17695 -10.17671 -10.17671 -10.17613 -10.17613
 Alpha  occ. eigenvalues --  -10.17585  -0.85833  -0.74953  -0.74953  -0.60635
 Alpha  occ. eigenvalues --   -0.60635  -0.52860  -0.46432  -0.45161  -0.42598
 Alpha  occ. eigenvalues --   -0.42598  -0.37324  -0.34867  -0.34867  -0.25934
 Alpha  occ. eigenvalues --   -0.25934
 Alpha virt. eigenvalues --   -0.01438  -0.01438   0.04468   0.07651   0.07651
 Alpha virt. eigenvalues --    0.10354   0.10354   0.12629   0.14007   0.14882
 Alpha virt. eigenvalues --    0.20534   0.20869   0.21451   0.21451   0.23199
 Alpha virt. eigenvalues --    0.23199   0.24694   0.24694   0.26808   0.26809
 Alpha virt. eigenvalues --    0.32597   0.32621   0.32621   0.35585   0.35585
 Alpha virt. eigenvalues --    0.38127   0.40288   0.41163   0.41163   0.43556
 Alpha virt. eigenvalues --    0.43556   0.43737   0.46151   0.46212   0.48839
 Alpha virt. eigenvalues --    0.48839   0.49030   0.50568   0.50568   0.64267
 Alpha virt. eigenvalues --    0.64268   0.65090   0.67842   0.68504   0.74511
 Alpha virt. eigenvalues --    0.74511   0.75355   0.75356   0.79883   0.84328
 Alpha virt. eigenvalues --    0.84328   0.85013   0.88680   0.88955   0.99905
 Alpha virt. eigenvalues --    0.99905   1.00854   1.00855   1.04942   1.04942
 Alpha virt. eigenvalues --    1.16526   1.17318   1.17319   1.20187   1.20187
 Alpha virt. eigenvalues --    1.22033   1.22033   1.24808   1.24809   1.28176
 Alpha virt. eigenvalues --    1.37401   1.37432   1.38379   1.44891   1.44891
 Alpha virt. eigenvalues --    1.47705   1.47705   1.48048   1.48049   1.59475
 Alpha virt. eigenvalues --    1.60683   1.64826   1.66230   1.66230   1.67714
 Alpha virt. eigenvalues --    1.68821   1.68821   1.70080   1.70081   1.76151
 Alpha virt. eigenvalues --    1.83730   1.90237   1.90237   2.03245   2.03245
 Alpha virt. eigenvalues --    2.06143   2.07250   2.07250   2.08225   2.15473
 Alpha virt. eigenvalues --    2.15474   2.21679   2.23098   2.23098   2.31571
 Alpha virt. eigenvalues --    2.45992   2.48077   2.48077   2.54800   2.55542
 Alpha virt. eigenvalues --    2.55543   2.55998   2.58164   2.65285   2.65285
 Alpha virt. eigenvalues --    2.66485   2.66485   2.66705   2.67442   2.67442
 Alpha virt. eigenvalues --    2.73567   2.74330   2.74330   2.80022   2.80161
 Alpha virt. eigenvalues --    2.80161   2.83761   2.84266   2.84266   2.84549
 Alpha virt. eigenvalues --    2.84550   2.89460   3.00821   3.09166   3.09166
 Alpha virt. eigenvalues --    3.09203   3.09203   3.13292   3.13292   3.13841
 Alpha virt. eigenvalues --    3.13841   3.18598   3.21303   3.21303   3.24157
 Alpha virt. eigenvalues --    3.25428   3.25428   3.30250   3.34673   3.37130
 Alpha virt. eigenvalues --    3.37131   3.37648   3.43889   3.43890   3.47383
 Alpha virt. eigenvalues --    3.49724   3.52187   3.52187   3.60133   3.63336
 Alpha virt. eigenvalues --    3.63336   3.74940   3.75584   3.75585   3.79191
 Alpha virt. eigenvalues --    3.86250   3.99443   3.99444   4.06450   4.06803
 Alpha virt. eigenvalues --    4.06804   4.11126   4.19749   4.19819   4.19819
 Alpha virt. eigenvalues --    4.22091   4.22091   4.28494   4.28496   4.29260
 Alpha virt. eigenvalues --    4.29261   4.62488   4.63715   4.63715   4.65470
 Alpha virt. eigenvalues --    4.82678   4.82679   4.88473   4.88473   5.20383
 Alpha virt. eigenvalues --    5.20383   5.27317   5.28608   5.41676   5.61781
 Alpha virt. eigenvalues --   21.85392  22.52973  22.52974  22.62864  22.62864
 Alpha virt. eigenvalues --   23.05499
          Condensed to atoms (all electrons):
               1          2          3          4          5          6
     1  C    4.862712   0.508644  -0.034840  -0.042741  -0.034839   0.508649
     2  C    0.508644   4.862721   0.508644  -0.034839  -0.042747  -0.034839
     3  C   -0.034840   0.508644   4.862712   0.508649  -0.034839  -0.042741
     4  C   -0.042741  -0.034839   0.508649   4.862712   0.508644  -0.034840
     5  C   -0.034839  -0.042747  -0.034839   0.508644   4.862721   0.508644
     6  C    0.508649  -0.034839  -0.042741  -0.034840   0.508644   4.862712
     7  H    0.419051  -0.046458   0.008352  -0.001561   0.008352  -0.046459
     8  H   -0.046458   0.419051  -0.046458   0.008352  -0.001560   0.008352
     9  H    0.008352  -0.046458   0.419051  -0.046459   0.008352  -0.001561
    10  H   -0.001561   0.008352  -0.046459   0.419051  -0.046458   0.008352
    11  H    0.008352  -0.001560   0.008352  -0.046458   0.419051  -0.046458
    12  H   -0.046459   0.008352  -0.001561   0.008352  -0.046458   0.419051
               7          8          9         10         11         12
     1  C    0.419051  -0.046458   0.008352  -0.001561   0.008352  -0.046459
     2  C   -0.046458   0.419051  -0.046458   0.008352  -0.001560   0.008352
     3  C    0.008352  -0.046458   0.419051  -0.046459   0.008352  -0.001561
     4  C   -0.001561   0.008352  -0.046459   0.419051  -0.046458   0.008352
     5  C    0.008352  -0.001560   0.008352  -0.046458   0.419051  -0.046458
     6  C   -0.046459   0.008352  -0.001561   0.008352  -0.046458   0.419051
     7  H    0.564043  -0.006845  -0.000291   0.000088  -0.000291  -0.006845
     8  H   -0.006845   0.564043  -0.006845  -0.000291   0.000088  -0.000291
     9  H   -0.000291  -0.006845   0.564043  -0.006845  -0.000291   0.000088
    10  H    0.000088  -0.000291  -0.006845   0.564043  -0.006845  -0.000291
    11  H   -0.000291   0.000088  -0.000291  -0.006845   0.564043  -0.006845
    12  H   -0.006845  -0.000291   0.000088  -0.000291  -0.006845   0.564043
 Mulliken charges:
               1
     1  C   -0.108862
     2  C   -0.108861
     3  C   -0.108862
     4  C   -0.108862
     5  C   -0.108861
     6  C   -0.108862
     7  H    0.108862
     8  H    0.108861
     9  H    0.108862
    10  H    0.108862
    11  H    0.108861
    12  H    0.108862
 Sum of Mulliken charges =  -0.00000
 Mulliken charges with hydrogens summed into heavy atoms:
               1
     1  C   -0.000000
     2  C    0.000000
     3  C   -0.000000
     4  C   -0.000000
     5  C    0.000000
     6  C   -0.000000
 Electronic spatial extent (au):  <R**2>=            457.3079
 Charge=             -0.0000 electrons
 Dipole moment (field-independent basis, Debye):
    X=              0.0000    Y=              0.0000    Z=              0.0000  Tot=              0.0000
 Quadrupole moment (field-independent basis, Debye-Ang):
   XX=            -32.1315   YY=            -32.1316   ZZ=            -39.8546
   XY=              0.0000   XZ=             -0.0000   YZ=              0.0000
 Traceless Quadrupole moment (field-independent basis, Debye-Ang):
   XX=              2.5744   YY=              2.5743   ZZ=             -5.1487
   XY=              0.0000   XZ=             -0.0000   YZ=              0.0000
 Octapole moment (field-independent basis, Debye-Ang**2):
  XXX=             -0.0000  YYY=             -0.0000  ZZZ=             -0.0000  XYY=             -0.0000
  XXY=              0.0000  XXZ=             -0.0000  XZZ=             -0.0000  YZZ=             -0.0000
  YYZ=             -0.0000  XYZ=             -0.0000
 Hexadecapole moment (field-independent basis, Debye-Ang**3):
 XXXX=           -274.7802 YYYY=           -274.7786 ZZZZ=            -48.0943 XXXY=             -0.0000
 XXXZ=             -0.0000 YYYX=              0.0000 YYYZ=              0.0000 ZZZX=             -0.0000
 ZZZY=              0.0000 XXYY=            -91.5928 XXZZ=            -63.9042 YYZZ=            -63.9039
 XXYZ=             -0.0000 YYXZ=             -0.0000 ZZXY=              0.0000
 N-N= 2.039941871599D+02 E-N=-9.464614032260D+02  KE= 2.311063672368D+02
 No NMR shielding tensors so no spin-rotation constants.
 Leave Link  601 at Tue Jan 14 13:27:10 2025, MaxMem=   104857600 cpu:               0.1 elap:               0.1
 (Enter /sw/cluster/pub/apps//g16/l9999.exe)
 1\1\GINC-N02\SP\RB3LYP\def2TZVP\C6H6\UNKNOWN\14-Jan-2025\0\\#P B3LYP/d
 ef2tzvp nosymm Density=Current\\Single-Point\\0,1\C,0,1.20467177,0.695
 51377,0.\C,0,0.,1.39102632,0.\C,0,-1.20467177,0.69551377,0.\C,0,-1.204
 67177,-0.69551377,0.\C,0,0.,-1.39102632,0.\C,0,1.20467177,-0.69551377,
 0.\H,0,2.14253772,1.23699958,0.\H,0,0.,2.47398441,0.\H,0,-2.14253772,1
 .23699958,0.\H,0,-2.14253772,-1.23699958,0.\H,0,0.,-2.47398441,0.\H,0,
 2.14253772,-1.23699958,0.\\Version=ES64L-G16RevA.03\HF=-232.3373551\RM
 SD=3.944e-09\Dipole=0.,0.,0.\Quadrupole=1.9139809,1.9139408,-3.8279217
 ,0.,0.,0.\PG=D02H [C2"(H1C1.C1H1),SG(C4H4)]\\@


 "ANNA, YOU MUSN'T SPEAK OF OXIDIZED MURIATIC ACID
 ANYMORE, FROM NOW ON YOU MUST SAY CHLORINE."
   -- JENS JACOB BERZELIUS, IN 1820, TO HIS COOK, WHO HAD
 COMPLAINED OF THE SMELL OF THE FLASK SHE WAS CLEANING.
 Job cpu time:       0 days  0 hours  0 minutes 43.4 seconds.
 Elapsed time:       0 days  0 hours  0 minutes 43.5 seconds.
 File lengths (MBytes):  RWF=     33 Int=      0 D2E=      0 Chk=      4 Scr=      1
 Normal termination of Gaussian 16 at Tue Jan 14 13:27:10 2025.
