 Entering Gaussian System, Link 0=g16
 Initial command:
 /sw/cluster/pub/apps//g16/l1.exe "/data/mmaximo/27762/Gau-1917275.inp" -scrdir="/data/mmaximo/27762/"
 Entering Link 1 = /sw/cluster/pub/apps//g16/l1.exe PID=   1917276.
  
 Copyright (c) 1988,1990,1992,1993,1995,1998,2003,2009,2016,
            Gaussian, Inc.  All Rights Reserved.
  
 This is part of the Gaussian(R) 16 program.  It is based on
 the Gaussian(R) 09 system (copyright 2009, Gaussian, Inc.),
 the Gaussian(R) 03 system (copyright 2003, Gaussian, Inc.),
 the Gaussian(R) 98 system (copyright 1998, Gaussian, Inc.),
 the Gaussian(R) 94 system (copyright 1995, Gaussian, Inc.),
 the Gaussian 92(TM) system (copyright 1992, Gaussian, Inc.),
 the Gaussian 90(TM) system (copyright 1990, Gaussian, Inc.),
 the Gaussian 88(TM) system (copyright 1988, Gaussian, Inc.),
 the Gaussian 86(TM) system (copyright 1986, Carnegie Mellon
 University), and the Gaussian 82(TM) system (copyright 1983,
 Carnegie Mellon University). Gaussian is a federally registered
 trademark of Gaussian, Inc.
  
 This software contains proprietary and confidential information,
 including trade secrets, belonging to Gaussian, Inc.
  
 This software is provided under written license and may be
 used, copied, transmitted, or stored only in accord with that
 written license.
  
 The following legend is applicable only to US Government
 contracts under FAR:
  
                    RESTRICTED RIGHTS LEGEND
  
 Use, reproduction and disclosure by the US Government is
 subject to restrictions as set forth in subparagraphs (a)
 and (c) of the Commercial Computer Software - Restricted
 Rights clause in FAR 52.227-19.
  
 Gaussian, Inc.
 340 Quinnipiac St., Bldg. 40, Wallingford CT 06492
  
  
 ---------------------------------------------------------------
 Warning -- This program may not be used in any manner that
 competes with the business of Gaussian, Inc. or will provide
 assistance to any competitor of Gaussian, Inc.  The licensee
 of this program is prohibited from giving any competitor of
 Gaussian, Inc. access to this program.  By using this program,
 the user acknowledges that Gaussian, Inc. is engaged in the
 business of creating and licensing software in the field of
 computational chemistry and represents and warrants to the
 licensee that it is not a competitor of Gaussian, Inc. and that
 it will not use this program in any manner prohibited above.
 ---------------------------------------------------------------
  

 Cite this work as:
 Gaussian 16, Revision A.03,
 M. J. Frisch, G. W. Trucks, H. B. Schlegel, G. E. Scuseria, 
 M. A. Robb, J. R. Cheeseman, G. Scalmani, V. Barone, 
 G. A. Petersson, H. Nakatsuji, X. Li, M. Caricato, A. V. Marenich, 
 J. Bloino, B. G. Janesko, R. Gomperts, B. Mennucci, H. P. Hratchian, 
 J. V. Ortiz, A. F. Izmaylov, J. L. Sonnenberg, D. Williams-Young, 
 F. Ding, F. Lipparini, F. Egidi, J. Goings, B. Peng, A. Petrone, 
 T. Henderson, D. Ranasinghe, V. G. Zakrzewski, J. Gao, N. Rega, 
 G. Zheng, W. Liang, M. Hada, M. Ehara, K. Toyota, R. Fukuda, 
 J. Hasegawa, M. Ishida, T. Nakajima, Y. Honda, O. Kitao, H. Nakai, 
 T. Vreven, K. Throssell, J. A. Montgomery, Jr., J. E. Peralta, 
 F. Ogliaro, M. J. Bearpark, J. J. Heyd, E. N. Brothers, K. N. Kudin, 
 V. N. Staroverov, T. A. Keith, R. Kobayashi, J. Normand, 
 K. Raghavachari, A. P. Rendell, J. C. Burant, S. S. Iyengar, 
 J. Tomasi, M. Cossi, J. M. Millam, M. Klene, C. Adamo, R. Cammi, 
 J. W. Ochterski, R. L. Martin, K. Morokuma, O. Farkas, 
 J. B. Foresman, and D. J. Fox, Gaussian, Inc., Wallingford CT, 2016.
 
 ******************************************
 Gaussian 16:  ES64L-G16RevA.03 25-Dec-2016
                14-Jan-2025 
 ******************************************
 %chk=C6H5NH-.chk
 ----------------------------------------
 #P B3LYP/def2tzvp nosymm Density=Current
 ----------------------------------------
 1/30=1,38=1,172=1/1;
 2/12=2,15=1,17=6,18=5,40=1/2;
 3/5=44,7=101,11=2,25=1,30=1,74=-5/1,2,3;
 4//1;
 5/5=2,38=5/2;
 6/7=2,8=2,9=2,10=2,22=-1,28=1/1;
 99/5=1,9=1/99;
 Leave Link    1 at Tue Jan 14 14:13:39 2025, MaxMem=           0 cpu:               0.0 elap:               0.0
 (Enter /sw/cluster/pub/apps//g16/l101.exe)
 ------------
 Single-Point
 ------------
 Symbolic Z-matrix:
 Charge = -1 Multiplicity = 1
 C                     0.02454  -1.84506   0. 
 C                     1.21425  -1.09904   0. 
 C                     1.21499   0.27991   0. 
 C                     0.        1.06113   0. 
 C                    -1.2012    0.25621   0. 
 C                    -1.17653  -1.1263    0. 
 H                     0.03583  -2.92853   0. 
 H                     2.16878  -1.62203   0. 
 H                     2.15106   0.82942   0. 
 N                     0.05305   2.38655   0. 
 H                    -2.15798   0.77453   0. 
 H                    -2.12153  -1.66681   0. 
 H                    -0.90383   2.74641   0. 
 
 ITRead=  0  0  0  0  0  0  0  0  0  0  0  0  0
 MicOpt= -1 -1 -1 -1 -1 -1 -1 -1 -1 -1 -1 -1 -1
 NAtoms=     13 NQM=       13 NQMF=       0 NMMI=      0 NMMIF=      0
                NMic=       0 NMicF=      0.
                    Isotopes and Nuclear Properties:
 (Nuclear quadrupole moments (NQMom) in fm**2, nuclear magnetic moments (NMagM)
  in nuclear magnetons)

  Atom         1           2           3           4           5           6           7           8           9          10
 IAtWgt=          12          12          12          12          12          12           1           1           1          14
 AtmWgt=  12.0000000  12.0000000  12.0000000  12.0000000  12.0000000  12.0000000   1.0078250   1.0078250   1.0078250  14.0030740
 NucSpn=           0           0           0           0           0           0           1           1           1           2
 AtZEff=  -0.0000000  -0.0000000  -0.0000000  -0.0000000  -0.0000000  -0.0000000  -0.0000000  -0.0000000  -0.0000000  -0.0000000
 NQMom=    0.0000000   0.0000000   0.0000000   0.0000000   0.0000000   0.0000000   0.0000000   0.0000000   0.0000000   2.0440000
 NMagM=    0.0000000   0.0000000   0.0000000   0.0000000   0.0000000   0.0000000   2.7928460   2.7928460   2.7928460   0.4037610
 AtZNuc=   6.0000000   6.0000000   6.0000000   6.0000000   6.0000000   6.0000000   1.0000000   1.0000000   1.0000000   7.0000000

  Atom        11          12          13
 IAtWgt=           1           1           1
 AtmWgt=   1.0078250   1.0078250   1.0078250
 NucSpn=           1           1           1
 AtZEff=  -0.0000000  -0.0000000  -0.0000000
 NQMom=    0.0000000   0.0000000   0.0000000
 NMagM=    2.7928460   2.7928460   2.7928460
 AtZNuc=   1.0000000   1.0000000   1.0000000
 Leave Link  101 at Tue Jan 14 14:13:39 2025, MaxMem=   104857600 cpu:               0.0 elap:               0.0
 (Enter /sw/cluster/pub/apps//g16/l202.exe)
                          Input orientation:                          
 ---------------------------------------------------------------------
 Center     Atomic      Atomic             Coordinates (Angstroms)
 Number     Number       Type             X           Y           Z
 ---------------------------------------------------------------------
      1          6           0        0.024544   -1.845063    0.000000
      2          6           0        1.214252   -1.099043    0.000000
      3          6           0        1.214991    0.279913    0.000000
      4          6           0        0.000000    1.061134    0.000000
      5          6           0       -1.201196    0.256214    0.000000
      6          6           0       -1.176534   -1.126298    0.000000
      7          1           0        0.035832   -2.928532    0.000000
      8          1           0        2.168781   -1.622032    0.000000
      9          1           0        2.151063    0.829416    0.000000
     10          7           0        0.053045    2.386554    0.000000
     11          1           0       -2.157983    0.774528    0.000000
     12          1           0       -2.121527   -1.666809    0.000000
     13          1           0       -0.903830    2.746408    0.000000
 ---------------------------------------------------------------------
                    Distance matrix (angstroms):
                    1          2          3          4          5
     1  C    0.000000
     2  C    1.404262   0.000000
     3  C    2.435711   1.378956   0.000000
     4  C    2.906301   2.478058   1.444476   0.000000
     5  C    2.432654   2.769677   2.416303   1.445949   0.000000
     6  C    1.399719   2.390941   2.774315   2.483766   1.382732
     7  H    1.083528   2.176168   3.418265   3.989827   3.416555
     8  H    2.155804   1.088413   2.127700   3.450071   3.858050
     9  H    3.416858   2.143961   1.085441   2.163507   3.400911
    10  N    4.231714   3.673934   2.405838   1.326481   2.472139
    11  H    3.409646   3.857750   3.409047   2.176932   1.088159
    12  H    2.153462   3.383753   3.862912   3.455800   2.131908
    13  H    4.684388   4.390190   3.251616   1.912343   2.507886
                    6          7          8          9         10
     6  C    0.000000
     7  H    2.172068   0.000000
     8  H    3.381846   2.501283   0.000000
     9  H    3.859756   4.312352   2.451512   0.000000
    10  N    3.721827   5.315115   4.532670   2.612730   0.000000
    11  H    2.139248   4.304123   4.946148   4.309395   2.736289
    12  H    1.088653   2.499229   4.290542   4.948350   4.599840
    13  H    3.882296   5.752210   5.340806   3.606553   1.022304
                   11         12         13
    11  H    0.000000
    12  H    2.441609   0.000000
    13  H    2.336924   4.578130   0.000000
 Symmetry turned off by external request.
 Stoichiometry    C6H6N(1-)
 Framework group  CS[SG(C6H6N)]
 Deg. of freedom    23
 Full point group                 CS      NOp   2
 Rotational constants (GHZ):           5.6899343           2.6806035           1.8221598
 Leave Link  202 at Tue Jan 14 14:13:39 2025, MaxMem=   104857600 cpu:               0.0 elap:               0.0
 (Enter /sw/cluster/pub/apps//g16/l301.exe)
 Standard basis: def2TZVP (5D, 7F)
 Ernie: Thresh=  0.10000D-02 Tol=  0.10000D-05 Strict=F.
   253 basis functions,   405 primitive gaussians,   288 cartesian basis functions
    25 alpha electrons       25 beta electrons
       nuclear repulsion energy       260.3618713577 Hartrees.
 IExCor=  402 DFT=T Ex+Corr=B3LYP ExCW=0 ScaHFX=  0.200000
 ScaDFX=  0.800000  0.720000  1.000000  0.810000 ScalE2=  1.000000  1.000000
 IRadAn=      5 IRanWt=     -1 IRanGd=            0 ICorTp=0 IEmpDi=  4
 NAtoms=   13 NActive=   13 NUniq=   13 SFac= 1.00D+00 NAtFMM=   60 NAOKFM=F Big=F
 Integral buffers will be    131072 words long.
 Raffenetti 2 integral format.
 Two-electron integral symmetry is turned off.
 Leave Link  301 at Tue Jan 14 14:13:39 2025, MaxMem=   104857600 cpu:               0.0 elap:               0.0
 (Enter /sw/cluster/pub/apps//g16/l302.exe)
 NPDir=0 NMtPBC=     1 NCelOv=     1 NCel=       1 NClECP=     1 NCelD=      1
         NCelK=      1 NCelE2=     1 NClLst=     1 CellRange=     0.0.
 One-electron integrals computed using PRISM.
   1 Symmetry operations used in ECPInt.
 ECPInt:  NShTT=    5151 NPrTT=   15748 LenC2=    5091 LenP2D=   12829.
 LDataN:  DoStor=T MaxTD1= 6 Len=  172
 NBasis=   253 RedAO= T EigKep=  1.14D-05  NBF=   253
 NBsUse=   253 1.00D-06 EigRej= -1.00D+00 NBFU=   253
 Precomputing XC quadrature grid using
 IXCGrd= 4 IRadAn=           5 IRanWt=          -1 IRanGd=           0 AccXCQ= 0.00D+00.
 Generated NRdTot=       0 NPtTot=           0 NUsed=           0 NTot=          32
 NSgBfM=   287   287   287   287   287 MxSgAt=    13 MxSgA2=    13.
 Leave Link  302 at Tue Jan 14 14:13:39 2025, MaxMem=   104857600 cpu:               0.1 elap:               0.1
 (Enter /sw/cluster/pub/apps//g16/l303.exe)
 DipDrv:  MaxL=1.
 Leave Link  303 at Tue Jan 14 14:13:39 2025, MaxMem=   104857600 cpu:               0.0 elap:               0.0
 (Enter /sw/cluster/pub/apps//g16/l401.exe)
 ExpMin= 9.52D-02 ExpMax= 1.97D+04 ExpMxC= 6.73D+02 IAcc=3 IRadAn=         5 AccDes= 0.00D+00
 Harris functional with IExCor=  402 and IRadAn=       5 diagonalized for initial guess.
 HarFok:  IExCor=  402 AccDes= 0.00D+00 IRadAn=         5 IDoV= 1 UseB2=F ITyADJ=14
 ICtDFT=  3500011 ScaDFX=  1.000000  1.000000  1.000000  1.000000
 FoFCou: FMM=F IPFlag=           0 FMFlag=      100000 FMFlg1=           0
         NFxFlg=           0 DoJE=T BraDBF=F KetDBF=T FulRan=T
         wScrn=  0.000000 ICntrl=       500 IOpCl=  0 I1Cent=   200000004 NGrid=           0
         NMat0=    1 NMatS0=      1 NMatT0=    0 NMatD0=    1 NMtDS0=    0 NMtDT0=    0
 Symmetry not used in FoFCou.
 Harris En= -287.346949180703    
 JPrj=0 DoOrth=F DoCkMO=F.
 Leave Link  401 at Tue Jan 14 14:13:41 2025, MaxMem=   104857600 cpu:               1.9 elap:               1.9
 (Enter /sw/cluster/pub/apps//g16/l502.exe)
 Two-electron integral symmetry not used.
 Closed shell SCF:
 Using DIIS extrapolation, IDIIS=  1040.
 NGot=   104857600 LenX=   104687995 LenY=   104604610
 Requested convergence on RMS density matrix=1.00D-08 within 128 cycles.
 Requested convergence on MAX density matrix=1.00D-06.
 Requested convergence on             energy=1.00D-06.
 No special actions if energy rises.
 Fock matrices will be formed incrementally for  20 cycles.
 Integral accuracy reduced to 1.0D-05 until final iterations.

 Cycle   1  Pass 0  IDiag  1:
 FoFJK:  IHMeth= 1 ICntrl=       0 DoSepK=F KAlg= 0 I1Cent=           0 FoldK=F
 IRaf= 970000000 NMat=       1 IRICut=       1 DoRegI=T DoRafI=F ISym2E= 0 IDoP0=0 IntGTp=1.
 FoFCou: FMM=F IPFlag=           0 FMFlag=      100000 FMFlg1=           0
         NFxFlg=           0 DoJE=F BraDBF=F KetDBF=F FulRan=T
         wScrn=  0.000000 ICntrl=         0 IOpCl=  0 I1Cent=           0 NGrid=           0
         NMat0=    1 NMatS0=      1 NMatT0=    0 NMatD0=    1 NMtDS0=    0 NMtDT0=    0
 Symmetry not used in FoFCou.
 E= -286.790077771360    
 DIIS: error= 3.75D-02 at cycle   1 NSaved=   1.
 NSaved= 1 IEnMin= 1 EnMin= -286.790077771360     IErMin= 1 ErrMin= 3.75D-02
 ErrMax= 3.75D-02  0.00D+00 EMaxC= 1.00D-01 BMatC= 3.14D-01 BMatP= 3.14D-01
 IDIUse=3 WtCom= 6.25D-01 WtEn= 3.75D-01
 Coeff-Com:  0.100D+01
 Coeff-En:   0.100D+01
 Coeff:      0.100D+01
 Gap=     0.119 Goal=   None    Shift=    0.000
 GapD=    0.119 DampG=1.000 DampE=0.500 DampFc=0.5000 IDamp=-1.
 Damping current iteration by 5.00D-01
 RMSDP=5.76D-02 MaxDP=3.46D+00              OVMax= 3.43D-01

 Cycle   2  Pass 0  IDiag  1:
 RMSU=  2.87D-02    CP:  1.17D+00
 E= -286.891437528189     Delta-E=       -0.101359756829 Rises=F Damp=T
 DIIS: error= 1.04D-02 at cycle   2 NSaved=   2.
 NSaved= 2 IEnMin= 2 EnMin= -286.891437528189     IErMin= 2 ErrMin= 1.04D-02
 ErrMax= 1.04D-02  0.00D+00 EMaxC= 1.00D-01 BMatC= 2.73D-02 BMatP= 3.14D-01
 IDIUse=3 WtCom= 8.96D-01 WtEn= 1.04D-01
 Coeff-Com:  0.160D+00 0.840D+00
 Coeff-En:   0.307D+00 0.693D+00
 Coeff:      0.176D+00 0.824D+00
 Gap=     0.182 Goal=   None    Shift=    0.000
 RMSDP=2.39D-02 MaxDP=1.40D+00 DE=-1.01D-01 OVMax= 2.73D-01

 Cycle   3  Pass 0  IDiag  1:
 RMSU=  3.20D-03    CP:  1.00D+00  1.78D-01
 E= -287.096758828130     Delta-E=       -0.205321299941 Rises=F Damp=F
 DIIS: error= 1.09D-02 at cycle   3 NSaved=   3.
 NSaved= 3 IEnMin= 3 EnMin= -287.096758828130     IErMin= 2 ErrMin= 1.04D-02
 ErrMax= 1.09D-02  0.00D+00 EMaxC= 1.00D-01 BMatC= 1.90D-02 BMatP= 2.73D-02
 IDIUse=3 WtCom= 8.91D-01 WtEn= 1.09D-01
 Coeff-Com:  0.373D-01 0.459D+00 0.504D+00
 Coeff-En:   0.000D+00 0.000D+00 0.100D+01
 Coeff:      0.332D-01 0.409D+00 0.558D+00
 Gap=     0.144 Goal=   None    Shift=    0.000
 RMSDP=3.81D-03 MaxDP=2.55D-01 DE=-2.05D-01 OVMax= 1.35D-01

 Cycle   4  Pass 0  IDiag  1:
 RMSU=  1.15D-03    CP:  1.03D+00  3.03D-01  1.14D+00
 E= -287.106601630859     Delta-E=       -0.009842802729 Rises=F Damp=F
 DIIS: error= 7.98D-03 at cycle   4 NSaved=   4.
 NSaved= 4 IEnMin= 4 EnMin= -287.106601630859     IErMin= 4 ErrMin= 7.98D-03
 ErrMax= 7.98D-03  0.00D+00 EMaxC= 1.00D-01 BMatC= 9.65D-03 BMatP= 1.90D-02
 IDIUse=3 WtCom= 9.20D-01 WtEn= 7.98D-02
 Coeff-Com: -0.106D-01 0.135D+00 0.415D+00 0.460D+00
 Coeff-En:   0.000D+00 0.000D+00 0.373D+00 0.627D+00
 Coeff:     -0.976D-02 0.124D+00 0.412D+00 0.473D+00
 Gap=     0.153 Goal=   None    Shift=    0.000
 RMSDP=1.77D-03 MaxDP=1.16D-01 DE=-9.84D-03 OVMax= 5.81D-02

 Cycle   5  Pass 0  IDiag  1:
 RMSU=  1.67D-04    CP:  1.02D+00  2.45D-01  1.10D+00  5.45D-01
 E= -287.116840438939     Delta-E=       -0.010238808080 Rises=F Damp=F
 DIIS: error= 1.14D-03 at cycle   5 NSaved=   5.
 NSaved= 5 IEnMin= 5 EnMin= -287.116840438939     IErMin= 5 ErrMin= 1.14D-03
 ErrMax= 1.14D-03  0.00D+00 EMaxC= 1.00D-01 BMatC= 2.12D-04 BMatP= 9.65D-03
 IDIUse=3 WtCom= 9.89D-01 WtEn= 1.14D-02
 Coeff-Com: -0.847D-02 0.228D-01 0.135D+00 0.210D+00 0.641D+00
 Coeff-En:   0.000D+00 0.000D+00 0.000D+00 0.000D+00 0.100D+01
 Coeff:     -0.837D-02 0.225D-01 0.134D+00 0.207D+00 0.645D+00
 Gap=     0.152 Goal=   None    Shift=    0.000
 RMSDP=9.71D-05 MaxDP=3.91D-03 DE=-1.02D-02 OVMax= 5.49D-03

 Cycle   6  Pass 0  IDiag  1:
 RMSU=  4.82D-05    CP:  1.02D+00  2.48D-01  1.10D+00  5.76D-01  8.00D-01
 E= -287.117012182637     Delta-E=       -0.000171743698 Rises=F Damp=F
 DIIS: error= 3.63D-04 at cycle   6 NSaved=   6.
 NSaved= 6 IEnMin= 6 EnMin= -287.117012182637     IErMin= 6 ErrMin= 3.63D-04
 ErrMax= 3.63D-04  0.00D+00 EMaxC= 1.00D-01 BMatC= 3.19D-05 BMatP= 2.12D-04
 IDIUse=3 WtCom= 9.96D-01 WtEn= 3.63D-03
 Coeff-Com: -0.370D-02 0.239D-02 0.408D-01 0.768D-01 0.352D+00 0.532D+00
 Coeff-En:   0.000D+00 0.000D+00 0.000D+00 0.000D+00 0.732D-01 0.927D+00
 Coeff:     -0.368D-02 0.238D-02 0.406D-01 0.766D-01 0.351D+00 0.533D+00
 Gap=     0.152 Goal=   None    Shift=    0.000
 RMSDP=2.19D-05 MaxDP=7.90D-04 DE=-1.72D-04 OVMax= 2.15D-03

 Cycle   7  Pass 0  IDiag  1:
 RMSU=  1.75D-05    CP:  1.02D+00  2.47D-01  1.10D+00  5.75D-01  8.45D-01
                    CP:  8.04D-01
 E= -287.117041151003     Delta-E=       -0.000028968366 Rises=F Damp=F
 DIIS: error= 1.13D-04 at cycle   7 NSaved=   7.
 NSaved= 7 IEnMin= 7 EnMin= -287.117041151003     IErMin= 7 ErrMin= 1.13D-04
 ErrMax= 1.13D-04  0.00D+00 EMaxC= 1.00D-01 BMatC= 1.77D-06 BMatP= 3.19D-05
 IDIUse=3 WtCom= 9.99D-01 WtEn= 1.13D-03
 Coeff-Com: -0.828D-03-0.493D-03 0.817D-02 0.182D-01 0.107D+00 0.252D+00
 Coeff-Com:  0.616D+00
 Coeff-En:   0.000D+00 0.000D+00 0.000D+00 0.000D+00 0.000D+00 0.000D+00
 Coeff-En:   0.100D+01
 Coeff:     -0.827D-03-0.493D-03 0.816D-02 0.182D-01 0.106D+00 0.252D+00
 Coeff:      0.617D+00
 Gap=     0.152 Goal=   None    Shift=    0.000
 RMSDP=1.16D-05 MaxDP=3.56D-04 DE=-2.90D-05 OVMax= 8.62D-04

 Cycle   8  Pass 0  IDiag  1:
 RMSU=  8.52D-06    CP:  1.02D+00  2.48D-01  1.10D+00  5.77D-01  8.34D-01
                    CP:  9.01D-01  8.90D-01
 E= -287.117042312802     Delta-E=       -0.000001161799 Rises=F Damp=F
 DIIS: error= 6.73D-05 at cycle   8 NSaved=   8.
 NSaved= 8 IEnMin= 8 EnMin= -287.117042312802     IErMin= 8 ErrMin= 6.73D-05
 ErrMax= 6.73D-05  0.00D+00 EMaxC= 1.00D-01 BMatC= 6.02D-07 BMatP= 1.77D-06
 IDIUse=1 WtCom= 1.00D+00 WtEn= 0.00D+00
 Coeff-Com:  0.545D-04-0.615D-03-0.871D-03-0.265D-03 0.163D-01 0.911D-01
 Coeff-Com:  0.416D+00 0.478D+00
 Coeff:      0.545D-04-0.615D-03-0.871D-03-0.265D-03 0.163D-01 0.911D-01
 Coeff:      0.416D+00 0.478D+00
 Gap=     0.152 Goal=   None    Shift=    0.000
 RMSDP=4.99D-06 MaxDP=2.11D-04 DE=-1.16D-06 OVMax= 2.92D-04

 Initial convergence to 1.0D-05 achieved.  Increase integral accuracy.
 Cycle   9  Pass 1  IDiag  1:
 E= -287.117040693338     Delta-E=        0.000001619464 Rises=F Damp=F
 DIIS: error= 4.32D-05 at cycle   1 NSaved=   1.
 NSaved= 1 IEnMin= 1 EnMin= -287.117040693338     IErMin= 1 ErrMin= 4.32D-05
 ErrMax= 4.32D-05  0.00D+00 EMaxC= 1.00D-01 BMatC= 3.50D-07 BMatP= 3.50D-07
 IDIUse=1 WtCom= 1.00D+00 WtEn= 0.00D+00
 Coeff-Com:  0.100D+01
 Coeff:      0.100D+01
 Gap=     0.152 Goal=   None    Shift=    0.000
 RMSDP=4.99D-06 MaxDP=2.11D-04 DE= 1.62D-06 OVMax= 1.10D-04

 Cycle  10  Pass 1  IDiag  1:
 RMSU=  7.47D-05    CP:  9.96D-01
 E= -287.117040797681     Delta-E=       -0.000000104343 Rises=F Damp=F
 DIIS: error= 8.97D-06 at cycle   2 NSaved=   2.
 NSaved= 2 IEnMin= 2 EnMin= -287.117040797681     IErMin= 2 ErrMin= 8.97D-06
 ErrMax= 8.97D-06  0.00D+00 EMaxC= 1.00D-01 BMatC= 1.95D-08 BMatP= 3.50D-07
 IDIUse=1 WtCom= 1.00D+00 WtEn= 0.00D+00
 Coeff-Com:  0.709D-01 0.929D+00
 Coeff:      0.709D-01 0.929D+00
 Gap=     0.152 Goal=   None    Shift=    0.000
 RMSDP=5.20D-06 MaxDP=3.90D-04 DE=-1.04D-07 OVMax= 2.02D-04

 Cycle  11  Pass 1  IDiag  1:
 RMSU=  3.64D-06    CP:  9.97D-01  9.72D-01
 E= -287.117040748299     Delta-E=        0.000000049381 Rises=F Damp=F
 DIIS: error= 1.60D-05 at cycle   3 NSaved=   3.
 NSaved= 3 IEnMin= 2 EnMin= -287.117040797681     IErMin= 2 ErrMin= 8.97D-06
 ErrMax= 1.60D-05  0.00D+00 EMaxC= 1.00D-01 BMatC= 7.26D-08 BMatP= 1.95D-08
 IDIUse=1 WtCom= 1.00D+00 WtEn= 0.00D+00
 Coeff-Com: -0.408D-03 0.660D+00 0.340D+00
 Coeff:     -0.408D-03 0.660D+00 0.340D+00
 Gap=     0.152 Goal=   None    Shift=    0.000
 RMSDP=5.46D-06 MaxDP=3.66D-04 DE= 4.94D-08 OVMax= 1.34D-04

 Cycle  12  Pass 1  IDiag  1:
 RMSU=  5.87D-07    CP:  9.96D-01  1.01D+00  2.25D-01
 E= -287.117040816178     Delta-E=       -0.000000067879 Rises=F Damp=F
 DIIS: error= 2.37D-06 at cycle   4 NSaved=   4.
 NSaved= 4 IEnMin= 4 EnMin= -287.117040816178     IErMin= 4 ErrMin= 2.37D-06
 ErrMax= 2.37D-06  0.00D+00 EMaxC= 1.00D-01 BMatC= 6.21D-10 BMatP= 1.95D-08
 IDIUse=1 WtCom= 1.00D+00 WtEn= 0.00D+00
 Coeff-Com: -0.179D-02 0.371D+00 0.195D+00 0.436D+00
 Coeff:     -0.179D-02 0.371D+00 0.195D+00 0.436D+00
 Gap=     0.152 Goal=   None    Shift=    0.000
 RMSDP=2.65D-07 MaxDP=1.52D-05 DE=-6.79D-08 OVMax= 1.15D-05

 Cycle  13  Pass 1  IDiag  1:
 RMSU=  1.06D-07    CP:  9.96D-01  1.01D+00  2.58D-01  8.83D-01
 E= -287.117040816722     Delta-E=       -0.000000000544 Rises=F Damp=F
 DIIS: error= 8.66D-07 at cycle   5 NSaved=   5.
 NSaved= 5 IEnMin= 5 EnMin= -287.117040816722     IErMin= 5 ErrMin= 8.66D-07
 ErrMax= 8.66D-07  0.00D+00 EMaxC= 1.00D-01 BMatC= 3.76D-11 BMatP= 6.21D-10
 IDIUse=1 WtCom= 1.00D+00 WtEn= 0.00D+00
 Coeff-Com: -0.959D-03 0.159D+00 0.817D-01 0.254D+00 0.506D+00
 Coeff:     -0.959D-03 0.159D+00 0.817D-01 0.254D+00 0.506D+00
 Gap=     0.152 Goal=   None    Shift=    0.000
 RMSDP=1.59D-07 MaxDP=9.66D-06 DE=-5.44D-10 OVMax= 4.07D-06

 Cycle  14  Pass 1  IDiag  1:
 RMSU=  3.44D-08    CP:  9.96D-01  1.01D+00  2.39D-01  9.26D-01  9.42D-01
 E= -287.117040816765     Delta-E=       -0.000000000043 Rises=F Damp=F
 DIIS: error= 1.85D-07 at cycle   6 NSaved=   6.
 NSaved= 6 IEnMin= 6 EnMin= -287.117040816765     IErMin= 6 ErrMin= 1.85D-07
 ErrMax= 1.85D-07  0.00D+00 EMaxC= 1.00D-01 BMatC= 3.88D-12 BMatP= 3.76D-11
 IDIUse=1 WtCom= 1.00D+00 WtEn= 0.00D+00
 Coeff-Com: -0.422D-03 0.635D-01 0.321D-01 0.113D+00 0.303D+00 0.489D+00
 Coeff:     -0.422D-03 0.635D-01 0.321D-01 0.113D+00 0.303D+00 0.489D+00
 Gap=     0.152 Goal=   None    Shift=    0.000
 RMSDP=3.27D-08 MaxDP=2.09D-06 DE=-4.25D-11 OVMax= 9.93D-07

 Cycle  15  Pass 1  IDiag  1:
 RMSU=  8.08D-09    CP:  9.96D-01  1.01D+00  2.36D-01  9.34D-01  9.91D-01
                    CP:  9.34D-01
 E= -287.117040816769     Delta-E=       -0.000000000005 Rises=F Damp=F
 DIIS: error= 3.13D-08 at cycle   7 NSaved=   7.
 NSaved= 7 IEnMin= 7 EnMin= -287.117040816769     IErMin= 7 ErrMin= 3.13D-08
 ErrMax= 3.13D-08  0.00D+00 EMaxC= 1.00D-01 BMatC= 2.11D-13 BMatP= 3.88D-12
 IDIUse=1 WtCom= 1.00D+00 WtEn= 0.00D+00
 Coeff-Com: -0.975D-06-0.203D-02-0.133D-02-0.652D-03 0.351D-01 0.208D+00
 Coeff-Com:  0.761D+00
 Coeff:     -0.975D-06-0.203D-02-0.133D-02-0.652D-03 0.351D-01 0.208D+00
 Coeff:      0.761D+00
 Gap=     0.152 Goal=   None    Shift=    0.000
 RMSDP=1.77D-08 MaxDP=9.27D-07 DE=-4.55D-12 OVMax= 1.70D-07

 Cycle  16  Pass 1  IDiag  1:
 RMSU=  2.18D-09    CP:  9.96D-01  1.01D+00  2.34D-01  9.42D-01  9.99D-01
                    CP:  9.60D-01  9.87D-01
 E= -287.117040816768     Delta-E=        0.000000000001 Rises=F Damp=F
 DIIS: error= 7.41D-09 at cycle   8 NSaved=   8.
 NSaved= 8 IEnMin= 7 EnMin= -287.117040816769     IErMin= 8 ErrMin= 7.41D-09
 ErrMax= 7.41D-09  0.00D+00 EMaxC= 1.00D-01 BMatC= 1.12D-14 BMatP= 2.11D-13
 IDIUse=1 WtCom= 1.00D+00 WtEn= 0.00D+00
 Coeff-Com:  0.222D-04-0.441D-02-0.240D-02-0.686D-02-0.161D-02 0.672D-01
 Coeff-Com:  0.318D+00 0.630D+00
 Coeff:      0.222D-04-0.441D-02-0.240D-02-0.686D-02-0.161D-02 0.672D-01
 Coeff:      0.318D+00 0.630D+00
 Gap=     0.152 Goal=   None    Shift=    0.000
 RMSDP=2.34D-09 MaxDP=8.24D-08 DE= 1.48D-12 OVMax= 4.50D-08

 SCF Done:  E(RB3LYP) =  -287.117040817     A.U. after   16 cycles
            NFock= 16  Conv=0.23D-08     -V/T= 2.0050
 KE= 2.856815006967D+02 PE=-1.197490171938D+03 EE= 3.643297590668D+02
 Leave Link  502 at Tue Jan 14 14:15:13 2025, MaxMem=   104857600 cpu:              92.0 elap:              92.2
 (Enter /sw/cluster/pub/apps//g16/l601.exe)
 Copying SCF densities to generalized density rwf, IOpCl= 0 IROHF=0.

 **********************************************************************

            Population analysis using the SCF density.

 **********************************************************************

 Alpha  occ. eigenvalues --  -14.05838 -10.01082 -10.00032  -9.99855  -9.98050
 Alpha  occ. eigenvalues --   -9.97945  -9.97568  -0.68750  -0.63581  -0.56271
 Alpha  occ. eigenvalues --   -0.51709  -0.42066  -0.39955  -0.33046  -0.28962
 Alpha  occ. eigenvalues --   -0.26785  -0.24018  -0.23207  -0.19226  -0.18727
 Alpha  occ. eigenvalues --   -0.15802  -0.11177  -0.07913  -0.05967   0.01630
 Alpha virt. eigenvalues --    0.16823   0.18998   0.20099   0.20906   0.22097
 Alpha virt. eigenvalues --    0.23471   0.25824   0.27268   0.29939   0.32366
 Alpha virt. eigenvalues --    0.34989   0.35934   0.36552   0.37031   0.38887
 Alpha virt. eigenvalues --    0.40403   0.40589   0.42804   0.43046   0.45527
 Alpha virt. eigenvalues --    0.48625   0.49408   0.49568   0.50096   0.51386
 Alpha virt. eigenvalues --    0.52679   0.53749   0.56109   0.56549   0.56925
 Alpha virt. eigenvalues --    0.58536   0.59449   0.60556   0.61263   0.62150
 Alpha virt. eigenvalues --    0.63136   0.64980   0.65825   0.67020   0.69791
 Alpha virt. eigenvalues --    0.69949   0.74696   0.77739   0.79322   0.81562
 Alpha virt. eigenvalues --    0.81871   0.83823   0.86163   0.87974   0.90757
 Alpha virt. eigenvalues --    0.91360   0.92619   0.94610   0.99148   0.99413
 Alpha virt. eigenvalues --    1.02775   1.04159   1.04610   1.06825   1.16887
 Alpha virt. eigenvalues --    1.17465   1.18757   1.20921   1.24693   1.25506
 Alpha virt. eigenvalues --    1.26074   1.30788   1.35379   1.36826   1.37586
 Alpha virt. eigenvalues --    1.38953   1.39985   1.42664   1.44999   1.45665
 Alpha virt. eigenvalues --    1.47690   1.53693   1.54604   1.56305   1.59632
 Alpha virt. eigenvalues --    1.62574   1.65560   1.66468   1.66701   1.67373
 Alpha virt. eigenvalues --    1.72568   1.73890   1.74840   1.80179   1.80699
 Alpha virt. eigenvalues --    1.82903   1.83709   1.86129   1.87020   1.88876
 Alpha virt. eigenvalues --    1.92676   1.93012   1.94258   2.01993   2.06934
 Alpha virt. eigenvalues --    2.08554   2.13066   2.13572   2.18650   2.19702
 Alpha virt. eigenvalues --    2.22359   2.24990   2.26493   2.28529   2.29899
 Alpha virt. eigenvalues --    2.34496   2.36570   2.40068   2.41274   2.43826
 Alpha virt. eigenvalues --    2.46374   2.52872   2.61543   2.65409   2.68549
 Alpha virt. eigenvalues --    2.71601   2.72023   2.73604   2.75110   2.77656
 Alpha virt. eigenvalues --    2.79111   2.82419   2.82997   2.84546   2.86439
 Alpha virt. eigenvalues --    2.86927   2.89585   2.92232   2.93947   2.94681
 Alpha virt. eigenvalues --    2.95723   2.99242   3.00560   3.00944   3.04799
 Alpha virt. eigenvalues --    3.05063   3.06259   3.09493   3.14237   3.17989
 Alpha virt. eigenvalues --    3.18354   3.23627   3.27064   3.29524   3.30953
 Alpha virt. eigenvalues --    3.31569   3.31950   3.33391   3.34621   3.38788
 Alpha virt. eigenvalues --    3.40383   3.41366   3.42757   3.43769   3.46237
 Alpha virt. eigenvalues --    3.50578   3.52887   3.53061   3.55313   3.58262
 Alpha virt. eigenvalues --    3.59644   3.63878   3.64342   3.65153   3.66048
 Alpha virt. eigenvalues --    3.68184   3.68578   3.74985   3.78142   3.84954
 Alpha virt. eigenvalues --    3.87890   3.88985   3.90431   3.97983   4.01162
 Alpha virt. eigenvalues --    4.07516   4.14909   4.15086   4.18093   4.18715
 Alpha virt. eigenvalues --    4.20446   4.24166   4.24666   4.28891   4.32241
 Alpha virt. eigenvalues --    4.38294   4.42557   4.42743   4.44940   4.46988
 Alpha virt. eigenvalues --    4.47920   4.60182   4.62129   4.72710   4.79663
 Alpha virt. eigenvalues --    4.82388   4.85143   4.88225   4.94608   4.97141
 Alpha virt. eigenvalues --    4.99496   5.03498   5.08202   5.15372   5.16285
 Alpha virt. eigenvalues --    5.28345   5.34027   5.44109   5.44661   5.46700
 Alpha virt. eigenvalues --    5.53937   5.66137   5.72671   5.80635   5.87406
 Alpha virt. eigenvalues --    6.21299  22.23307  22.71092  22.74176  22.85477
 Alpha virt. eigenvalues --   22.97038  23.36803  32.24754
          Condensed to atoms (all electrons):
               1          2          3          4          5          6
     1  C    5.309299   0.259924   0.119435  -0.247570   0.256019   0.203206
     2  C    0.259924   5.148442   0.333498   0.216795  -0.371694   0.219688
     3  C    0.119435   0.333498   5.306761   0.157769   0.421625  -0.338950
     4  C   -0.247570   0.216795   0.157769   5.061045  -0.234241   0.451769
     5  C    0.256019  -0.371694   0.421625  -0.234241   6.610773  -0.470243
     6  C    0.203206   0.219688  -0.338950   0.451769  -0.470243   5.707063
     7  H    0.437564  -0.080467   0.015339  -0.006346   0.021268  -0.081354
     8  H   -0.100100   0.442215  -0.091813   0.027482  -0.011968   0.023653
     9  H    0.038932  -0.145139   0.435717  -0.092958   0.068147  -0.025182
    10  N   -0.017758   0.030062  -0.149036   0.798946  -0.348186   0.094555
    11  H    0.012990  -0.001049   0.016326  -0.067479   0.430340  -0.095200
    12  H   -0.060484   0.004790   0.005317  -0.004210  -0.022715   0.366538
    13  H   -0.004629   0.005648  -0.013655  -0.177903  -0.076373   0.025184
               7          8          9         10         11         12
     1  C    0.437564  -0.100100   0.038932  -0.017758   0.012990  -0.060484
     2  C   -0.080467   0.442215  -0.145139   0.030062  -0.001049   0.004790
     3  C    0.015339  -0.091813   0.435717  -0.149036   0.016326   0.005317
     4  C   -0.006346   0.027482  -0.092958   0.798946  -0.067479  -0.004210
     5  C    0.021268  -0.011968   0.068147  -0.348186   0.430340  -0.022715
     6  C   -0.081354   0.023653  -0.025182   0.094555  -0.095200   0.366538
     7  H    0.695300  -0.012567  -0.000181  -0.000046  -0.000613  -0.010486
     8  H   -0.012567   0.722859  -0.024037   0.000222   0.000224  -0.001103
     9  H   -0.000181  -0.024037   0.750077  -0.001781  -0.000766   0.000416
    10  N   -0.000046   0.000222  -0.001781   6.688309  -0.013871  -0.001341
    11  H   -0.000613   0.000224  -0.000766  -0.013871   0.710820  -0.015084
    12  H   -0.010486  -0.001103   0.000416  -0.001341  -0.015084   0.713342
    13  H   -0.000031   0.000181  -0.007318   0.404716   0.006638  -0.000396
              13
     1  C   -0.004629
     2  C    0.005648
     3  C   -0.013655
     4  C   -0.177903
     5  C   -0.076373
     6  C    0.025184
     7  H   -0.000031
     8  H    0.000181
     9  H   -0.007318
    10  N    0.404716
    11  H    0.006638
    12  H   -0.000396
    13  H    0.722285
 Mulliken charges:
               1
     1  C   -0.206829
     2  C   -0.062712
     3  C   -0.218332
     4  C    0.116903
     5  C   -0.272753
     6  C   -0.080725
     7  H    0.022621
     8  H    0.024753
     9  H    0.004075
    10  N   -0.484793
    11  H    0.016725
    12  H    0.025414
    13  H    0.115652
 Sum of Mulliken charges =  -1.00000
 Mulliken charges with hydrogens summed into heavy atoms:
               1
     1  C   -0.184208
     2  C   -0.037959
     3  C   -0.214257
     4  C    0.116903
     5  C   -0.256027
     6  C   -0.055311
    10  N   -0.369140
 Electronic spatial extent (au):  <R**2>=            689.9308
 Charge=             -1.0000 electrons
 Dipole moment (field-independent basis, Debye):
    X=             -1.1595    Y=             -3.5509    Z=             -0.0000  Tot=              3.7354
 Quadrupole moment (field-independent basis, Debye-Ang):
   XX=            -46.9785   YY=            -64.5442   ZZ=            -49.9331
   XY=             -3.8551   XZ=              0.0000   YZ=              0.0000
 Traceless Quadrupole moment (field-independent basis, Debye-Ang):
   XX=              6.8401   YY=            -10.7256   ZZ=              3.8855
   XY=             -3.8551   XZ=              0.0000   YZ=              0.0000
 Octapole moment (field-independent basis, Debye-Ang**2):
  XXX=             -0.6432  YYY=            -35.2208  ZZZ=             -0.0000  XYY=            -11.8600
  XXY=              1.5438  XXZ=             -0.0000  XZZ=             -0.3216  YZZ=              1.8277
  YYZ=              0.0000  XYZ=              0.0000
 Hexadecapole moment (field-independent basis, Debye-Ang**3):
 XXXX=           -342.9957 YYYY=           -752.5399 ZZZZ=            -63.7753 XXXY=              0.6678
 XXXZ=              0.0000 YYYX=            -31.8901 YYYZ=              0.0000 ZZZX=              0.0000
 ZZZY=              0.0000 XXYY=           -159.7921 XXZZ=            -75.0726 YYZZ=           -128.9835
 XXYZ=              0.0000 YYXZ=              0.0000 ZZXY=              0.3288
 N-N= 2.603618713577D+02 E-N=-1.197490171563D+03  KE= 2.856815006967D+02
 No NMR shielding tensors so no spin-rotation constants.
 Leave Link  601 at Tue Jan 14 14:15:13 2025, MaxMem=   104857600 cpu:               0.1 elap:               0.1
 (Enter /sw/cluster/pub/apps//g16/l9999.exe)
 1\1\GINC-N02\SP\RB3LYP\def2TZVP\C6H6N1(1-)\UNKNOWN\14-Jan-2025\0\\#P B
 3LYP/def2tzvp nosymm Density=Current\\Single-Point\\-1,1\C,0,0.0245444
 5,-1.84506321,0.\C,0,1.21425217,-1.099043,0.\C,0,1.21499143,0.27991286
 ,0.\C,0,0.,1.06113414,0.\C,0,-1.20119584,0.25621411,0.\C,0,-1.17653382
 ,-1.12629806,0.\H,0,0.03583178,-2.92853243,0.\H,0,2.1687809,-1.6220317
 7,0.\H,0,2.15106255,0.82941632,0.\N,0,0.05304504,2.38655437,0.\H,0,-2.
 15798326,0.77452757,0.\H,0,-2.12152737,-1.66680947,0.\H,0,-0.90383029,
 2.74640814,0.\\Version=ES64L-G16RevA.03\HF=-287.1170408\RMSD=2.343e-09
 \Dipole=-0.4561802,-1.397018,0.\Quadrupole=5.0854589,-7.9742221,2.8887
 632,-2.8662059,0.,0.\PG=CS [SG(C6H6N1)]\\@


 TOWERING GENIUS DISDAINS A BEATEN PATH.  IT SEEKS 
 REGIONS HITHERTO UNEXPLORED.

                                -- ABRAHAM LINCOLN
 Job cpu time:       0 days  0 hours  1 minutes 34.2 seconds.
 Elapsed time:       0 days  0 hours  1 minutes 34.4 seconds.
 File lengths (MBytes):  RWF=     40 Int=      0 D2E=      0 Chk=      5 Scr=      1
 Normal termination of Gaussian 16 at Tue Jan 14 14:15:13 2025.
