 Entering Gaussian System, Link 0=g16
 Initial command:
 /sw/cluster/pub/apps//g16/l1.exe "/data/mmaximo/28037/Gau-919479.inp" -scrdir="/data/mmaximo/28037/"
 Entering Link 1 = /sw/cluster/pub/apps//g16/l1.exe PID=    919480.
  
 Copyright (c) 1988,1990,1992,1993,1995,1998,2003,2009,2016,
            Gaussian, Inc.  All Rights Reserved.
  
 This is part of the Gaussian(R) 16 program.  It is based on
 the Gaussian(R) 09 system (copyright 2009, Gaussian, Inc.),
 the Gaussian(R) 03 system (copyright 2003, Gaussian, Inc.),
 the Gaussian(R) 98 system (copyright 1998, Gaussian, Inc.),
 the Gaussian(R) 94 system (copyright 1995, Gaussian, Inc.),
 the Gaussian 92(TM) system (copyright 1992, Gaussian, Inc.),
 the Gaussian 90(TM) system (copyright 1990, Gaussian, Inc.),
 the Gaussian 88(TM) system (copyright 1988, Gaussian, Inc.),
 the Gaussian 86(TM) system (copyright 1986, Carnegie Mellon
 University), and the Gaussian 82(TM) system (copyright 1983,
 Carnegie Mellon University). Gaussian is a federally registered
 trademark of Gaussian, Inc.
  
 This software contains proprietary and confidential information,
 including trade secrets, belonging to Gaussian, Inc.
  
 This software is provided under written license and may be
 used, copied, transmitted, or stored only in accord with that
 written license.
  
 The following legend is applicable only to US Government
 contracts under FAR:
  
                    RESTRICTED RIGHTS LEGEND
  
 Use, reproduction and disclosure by the US Government is
 subject to restrictions as set forth in subparagraphs (a)
 and (c) of the Commercial Computer Software - Restricted
 Rights clause in FAR 52.227-19.
  
 Gaussian, Inc.
 340 Quinnipiac St., Bldg. 40, Wallingford CT 06492
  
  
 ---------------------------------------------------------------
 Warning -- This program may not be used in any manner that
 competes with the business of Gaussian, Inc. or will provide
 assistance to any competitor of Gaussian, Inc.  The licensee
 of this program is prohibited from giving any competitor of
 Gaussian, Inc. access to this program.  By using this program,
 the user acknowledges that Gaussian, Inc. is engaged in the
 business of creating and licensing software in the field of
 computational chemistry and represents and warrants to the
 licensee that it is not a competitor of Gaussian, Inc. and that
 it will not use this program in any manner prohibited above.
 ---------------------------------------------------------------
  

 Cite this work as:
 Gaussian 16, Revision A.03,
 M. J. Frisch, G. W. Trucks, H. B. Schlegel, G. E. Scuseria, 
 M. A. Robb, J. R. Cheeseman, G. Scalmani, V. Barone, 
 G. A. Petersson, H. Nakatsuji, X. Li, M. Caricato, A. V. Marenich, 
 J. Bloino, B. G. Janesko, R. Gomperts, B. Mennucci, H. P. Hratchian, 
 J. V. Ortiz, A. F. Izmaylov, J. L. Sonnenberg, D. Williams-Young, 
 F. Ding, F. Lipparini, F. Egidi, J. Goings, B. Peng, A. Petrone, 
 T. Henderson, D. Ranasinghe, V. G. Zakrzewski, J. Gao, N. Rega, 
 G. Zheng, W. Liang, M. Hada, M. Ehara, K. Toyota, R. Fukuda, 
 J. Hasegawa, M. Ishida, T. Nakajima, Y. Honda, O. Kitao, H. Nakai, 
 T. Vreven, K. Throssell, J. A. Montgomery, Jr., J. E. Peralta, 
 F. Ogliaro, M. J. Bearpark, J. J. Heyd, E. N. Brothers, K. N. Kudin, 
 V. N. Staroverov, T. A. Keith, R. Kobayashi, J. Normand, 
 K. Raghavachari, A. P. Rendell, J. C. Burant, S. S. Iyengar, 
 J. Tomasi, M. Cossi, J. M. Millam, M. Klene, C. Adamo, R. Cammi, 
 J. W. Ochterski, R. L. Martin, K. Morokuma, O. Farkas, 
 J. B. Foresman, and D. J. Fox, Gaussian, Inc., Wallingford CT, 2016.
 
 ******************************************
 Gaussian 16:  ES64L-G16RevA.03 25-Dec-2016
                20-Jan-2025 
 ******************************************
 %chk=C6H5NH-.chk
 -------------------------
 # opt freq b3lyp def2tzvp
 -------------------------
 1/18=20,19=15,26=3,38=1/1,3;
 2/9=110,12=2,17=6,18=5,40=1/2;
 3/5=44,7=101,11=2,25=1,30=1,71=1,74=-5/1,2,3;
 4//1;
 5/5=2,38=5/2;
 6/7=2,8=2,9=2,10=2,28=1/1;
 7//1,2,3,16;
 1/18=20,19=15,26=3/3(2);
 2/9=110/2;
 99//99;
 2/9=110/2;
 3/5=44,7=101,11=2,25=1,30=1,71=1,74=-5/1,2,3;
 4/5=5,16=3,69=1/1;
 5/5=2,38=5/2;
 7//1,2,3,16;
 1/18=20,19=15,26=3/3(-5);
 2/9=110/2;
 6/7=2,8=2,9=2,10=2,19=2,28=1/1;
 99/9=1/99;
 --------
 opt meta
 --------
 Symbolic Z-matrix:
 Charge = -1 Multiplicity = 1
 C                     0.06869  -1.79323   0.00286 
 C                     1.26358  -1.06103  -0.00152 
 C                     1.22813   0.29371  -0.00302 
 C                    -0.00343   0.96242  -0.00019 
 C                    -1.19832   0.23022   0.00419 
 C                    -1.16287  -1.12452   0.00569 
 H                     0.09668  -2.86287   0.00405 
 H                     2.20391  -1.5716   -0.00368 
 H                     2.14046   0.85277  -0.00636 
 N                    -0.03842   2.29966  -0.00167 
 H                    -2.13865   0.74079   0.00636 
 H                    -0.91723   2.77684   0.00036 
 C                    -2.47594  -1.92914   0.01051 
 O                    -3.58144  -1.32805  -0.00159 
 O                    -2.43885  -3.35858  -0.00454 
 H                    -3.33533  -3.7019   -0.0113 
 

 GradGradGradGradGradGradGradGradGradGradGradGradGradGradGradGradGradGrad
 Berny optimization.
 Initialization pass.
                           ----------------------------
                           !    Initial Parameters    !
                           ! (Angstroms and Degrees)  !
 --------------------------                            --------------------------
 ! Name  Definition              Value          Derivative Info.                !
 --------------------------------------------------------------------------------
 ! R1    R(1,2)                  1.4014         estimate D2E/DX2                !
 ! R2    R(1,6)                  1.4014         estimate D2E/DX2                !
 ! R3    R(1,7)                  1.07           estimate D2E/DX2                !
 ! R4    R(2,3)                  1.3552         estimate D2E/DX2                !
 ! R5    R(2,8)                  1.07           estimate D2E/DX2                !
 ! R6    R(3,4)                  1.4014         estimate D2E/DX2                !
 ! R7    R(3,9)                  1.07           estimate D2E/DX2                !
 ! R8    R(4,5)                  1.4014         estimate D2E/DX2                !
 ! R9    R(4,10)                 1.3377         estimate D2E/DX2                !
 ! R10   R(5,6)                  1.3552         estimate D2E/DX2                !
 ! R11   R(5,11)                 1.07           estimate D2E/DX2                !
 ! R12   R(6,13)                 1.54           estimate D2E/DX2                !
 ! R13   R(10,12)                1.0            estimate D2E/DX2                !
 ! R14   R(13,14)                1.2584         estimate D2E/DX2                !
 ! R15   R(13,15)                1.43           estimate D2E/DX2                !
 ! R16   R(15,16)                0.96           estimate D2E/DX2                !
 ! A1    A(2,1,6)              120.0            estimate D2E/DX2                !
 ! A2    A(2,1,7)              120.0            estimate D2E/DX2                !
 ! A3    A(6,1,7)              120.0            estimate D2E/DX2                !
 ! A4    A(1,2,3)              120.0            estimate D2E/DX2                !
 ! A5    A(1,2,8)              120.0            estimate D2E/DX2                !
 ! A6    A(3,2,8)              120.0            estimate D2E/DX2                !
 ! A7    A(2,3,4)              120.0            estimate D2E/DX2                !
 ! A8    A(2,3,9)              120.0            estimate D2E/DX2                !
 ! A9    A(4,3,9)              120.0            estimate D2E/DX2                !
 ! A10   A(3,4,5)              120.0            estimate D2E/DX2                !
 ! A11   A(3,4,10)             120.0            estimate D2E/DX2                !
 ! A12   A(5,4,10)             120.0            estimate D2E/DX2                !
 ! A13   A(4,5,6)              120.0            estimate D2E/DX2                !
 ! A14   A(4,5,11)             120.0            estimate D2E/DX2                !
 ! A15   A(6,5,11)             120.0            estimate D2E/DX2                !
 ! A16   A(1,6,5)              120.0            estimate D2E/DX2                !
 ! A17   A(1,6,13)             120.0            estimate D2E/DX2                !
 ! A18   A(5,6,13)             120.0            estimate D2E/DX2                !
 ! A19   A(4,10,12)            120.0            estimate D2E/DX2                !
 ! A20   A(6,13,14)            119.963          estimate D2E/DX2                !
 ! A21   A(6,13,15)            120.0083         estimate D2E/DX2                !
 ! A22   A(14,13,15)           120.0107         estimate D2E/DX2                !
 ! A23   A(13,15,16)           109.4712         estimate D2E/DX2                !
 ! D1    D(6,1,2,3)              0.0001         estimate D2E/DX2                !
 ! D2    D(6,1,2,8)            180.0            estimate D2E/DX2                !
 ! D3    D(7,1,2,3)           -180.0            estimate D2E/DX2                !
 ! D4    D(7,1,2,8)             -0.0001         estimate D2E/DX2                !
 ! D5    D(2,1,6,5)             -0.0001         estimate D2E/DX2                !
 ! D6    D(2,1,6,13)           179.9999         estimate D2E/DX2                !
 ! D7    D(7,1,6,5)            180.0            estimate D2E/DX2                !
 ! D8    D(7,1,6,13)             0.0            estimate D2E/DX2                !
 ! D9    D(1,2,3,4)              0.0            estimate D2E/DX2                !
 ! D10   D(1,2,3,9)            179.9999         estimate D2E/DX2                !
 ! D11   D(8,2,3,4)           -179.9999         estimate D2E/DX2                !
 ! D12   D(8,2,3,9)              0.0            estimate D2E/DX2                !
 ! D13   D(2,3,4,5)              0.0            estimate D2E/DX2                !
 ! D14   D(2,3,4,10)           179.9999         estimate D2E/DX2                !
 ! D15   D(9,3,4,5)           -179.9999         estimate D2E/DX2                !
 ! D16   D(9,3,4,10)            -0.0001         estimate D2E/DX2                !
 ! D17   D(3,4,5,6)              0.0            estimate D2E/DX2                !
 ! D18   D(3,4,5,11)           180.0            estimate D2E/DX2                !
 ! D19   D(10,4,5,6)          -179.9999         estimate D2E/DX2                !
 ! D20   D(10,4,5,11)            0.0001         estimate D2E/DX2                !
 ! D21   D(3,4,10,12)         -179.9999         estimate D2E/DX2                !
 ! D22   D(5,4,10,12)            0.0            estimate D2E/DX2                !
 ! D23   D(4,5,6,1)              0.0            estimate D2E/DX2                !
 ! D24   D(4,5,6,13)          -180.0            estimate D2E/DX2                !
 ! D25   D(11,5,6,1)          -179.9999         estimate D2E/DX2                !
 ! D26   D(11,5,6,13)            0.0001         estimate D2E/DX2                !
 ! D27   D(1,6,13,14)         -179.2307         estimate D2E/DX2                !
 ! D28   D(1,6,13,15)           -0.7693         estimate D2E/DX2                !
 ! D29   D(5,6,13,14)            0.7693         estimate D2E/DX2                !
 ! D30   D(5,6,13,15)          179.2307         estimate D2E/DX2                !
 ! D31   D(6,13,15,16)        -179.2303         estimate D2E/DX2                !
 ! D32   D(14,13,15,16)         -0.7697         estimate D2E/DX2                !
 --------------------------------------------------------------------------------
 Trust Radius=3.00D-01 FncErr=1.00D-07 GrdErr=1.00D-06 EigMax=2.50D+02 EigMin=1.00D-04
 Number of steps in this run=     81 maximum allowed number of steps=    100.
 GradGradGradGradGradGradGradGradGradGradGradGradGradGradGradGradGradGrad

                          Input orientation:                          
 ---------------------------------------------------------------------
 Center     Atomic      Atomic             Coordinates (Angstroms)
 Number     Number       Type             X           Y           Z
 ---------------------------------------------------------------------
      1          6           0        0.068689   -1.793232    0.002861
      2          6           0        1.263585   -1.061026   -0.001521
      3          6           0        1.228131    0.293710   -0.003020
      4          6           0       -0.003428    0.962423   -0.000188
      5          6           0       -1.198324    0.230217    0.004193
      6          6           0       -1.162870   -1.124519    0.005692
      7          1           0        0.096681   -2.862865    0.004045
      8          1           0        2.203907   -1.571603   -0.003682
      9          1           0        2.140461    0.852765   -0.006364
     10          7           0       -0.038424    2.299664   -0.001665
     11          1           0       -2.138646    0.740794    0.006355
     12          1           0       -0.917230    2.776839    0.000357
     13          6           0       -2.475943   -1.929141    0.010506
     14          8           0       -3.581436   -1.328052   -0.001592
     15          8           0       -2.438847   -3.358581   -0.004538
     16          1           0       -3.335333   -3.701900   -0.011296
 ---------------------------------------------------------------------
                    Distance matrix (angstroms):
                    1          2          3          4          5
     1  C    0.000000
     2  C    1.401400   0.000000
     3  C    2.387397   1.355200   0.000000
     4  C    2.756600   2.387397   1.401400   0.000000
     5  C    2.387397   2.779988   2.427296   1.401400   0.000000
     6  C    1.401400   2.427296   2.779988   2.387397   1.355200
     7  H    1.070000   2.146700   3.353236   3.826600   3.353236
     8  H    2.146700   1.070000   2.105120   3.360599   3.849908
     9  H    3.360599   2.105120   1.070000   2.146700   3.396345
    10  N    4.094300   3.604090   2.372344   1.337700   2.372344
    11  H    3.360599   3.849908   3.396345   2.146700   1.070000
    12  H    4.675210   4.414200   3.281542   2.031537   2.562092
    13  C    2.548270   3.838989   4.319885   3.804548   2.509019
    14  O    3.679650   4.852374   5.075633   4.248343   2.847360
    15  O    2.956029   4.357381   5.175515   4.960076   3.797162
    16  H    3.902637   5.303240   6.065490   5.732157   4.475331
                    6          7          8          9         10
     6  C    0.000000
     7  H    2.146700   0.000000
     8  H    3.396345   2.471400   0.000000
     9  H    3.849908   4.240643   2.425200   0.000000
    10  N    3.604090   5.164300   4.473786   2.615545   0.000000
    11  H    2.105120   4.240643   4.919863   4.280590   2.615545
    12  H    3.909087   5.730122   5.352613   3.612696   1.000000
    13  C    1.540000   2.736837   4.693509   5.389849   4.881029
    14  O    2.427126   3.985503   5.790468   6.123405   5.070824
    15  O    2.572791   2.583546   4.974782   6.221374   6.146363
    16  H    3.370872   3.533120   5.934762   7.122451   6.847516
                   11         12         13         14         15
    11  H    0.000000
    12  H    2.374316   0.000000
    13  C    2.691159   4.957413   0.000000
    14  O    2.522267   4.893683   1.258400   0.000000
    15  O    4.110366   6.321291   1.430000   2.329928   0.000000
    16  H    4.601076   6.915303   1.970203   2.386591   0.960000
                   16
    16  H    0.000000
 Stoichiometry    C7H6NO2(1-)
 Framework group  C1[X(C7H6NO2)]
 Deg. of freedom    42
 Full point group                 C1      NOp   1
 Largest Abelian subgroup         C1      NOp   1
 Largest concise Abelian subgroup C1      NOp   1
                         Standard orientation:                         
 ---------------------------------------------------------------------
 Center     Atomic      Atomic             Coordinates (Angstroms)
 Number     Number       Type             X           Y           Z
 ---------------------------------------------------------------------
      1          6           0        0.101800    1.437728    0.003092
      2          6           0       -1.252463    1.798115   -0.000792
      3          6           0       -2.209088    0.838203   -0.002626
      4          6           0       -1.844063   -0.514821   -0.000640
      5          6           0       -0.489800   -0.875209    0.003242
      6          6           0        0.466825    0.084703    0.005077
      7          1           0        0.857104    2.195628    0.004541
      8          1           0       -1.531168    2.831179   -0.002307
      9          1           0       -3.243098    1.113367   -0.005590
     10          7           0       -2.788335   -1.462338   -0.002448
     11          1           0       -0.211095   -1.908273    0.004759
     12          1           0       -2.527863   -2.427818   -0.001030
     13          6           0        1.955026   -0.311327    0.009343
     14          8           0        2.282084   -1.526415   -0.003514
     15          8           0        2.964615    0.701300   -0.005347
     16          1           0        3.831464    0.288842   -0.012527
 ---------------------------------------------------------------------
 Rotational constants (GHZ):           2.7380012           0.9404829           0.7000336
 Standard basis: def2TZVP (5D, 7F)
 There are   396 symmetry adapted cartesian basis functions of A   symmetry.
 There are   346 symmetry adapted basis functions of A   symmetry.
   346 basis functions,   558 primitive gaussians,   396 cartesian basis functions
    36 alpha electrons       36 beta electrons
       nuclear repulsion energy       474.1625642694 Hartrees.
 NAtoms=   16 NActive=   16 NUniq=   16 SFac= 1.00D+00 NAtFMM=   60 NAOKFM=F Big=F
 Integral buffers will be    131072 words long.
 Raffenetti 2 integral format.
 Two-electron integral symmetry is turned on.
 One-electron integrals computed using PRISM.
   1 Symmetry operations used in ECPInt.
 ECPInt:  NShTT=    9045 NPrTT=   28204 LenC2=    8649 LenP2D=   20966.
 LDataN:  DoStor=T MaxTD1= 6 Len=  172
 NBasis=   346 RedAO= T EigKep=  7.98D-06  NBF=   346
 NBsUse=   346 1.00D-06 EigRej= -1.00D+00 NBFU=   346
 ExpMin= 9.52D-02 ExpMax= 2.70D+04 ExpMxC= 9.22D+02 IAcc=3 IRadAn=         5 AccDes= 0.00D+00
 Harris functional with IExCor=  402 and IRadAn=       5 diagonalized for initial guess.
 HarFok:  IExCor=  402 AccDes= 0.00D+00 IRadAn=         5 IDoV= 1 UseB2=F ITyADJ=14
 ICtDFT=  3500011 ScaDFX=  1.000000  1.000000  1.000000  1.000000
 FoFCou: FMM=F IPFlag=           0 FMFlag=      100000 FMFlg1=           0
         NFxFlg=           0 DoJE=T BraDBF=F KetDBF=T FulRan=T
         wScrn=  0.000000 ICntrl=       500 IOpCl=  0 I1Cent=   200000004 NGrid=           0
         NMat0=    1 NMatS0=      1 NMatT0=    0 NMatD0=    1 NMtDS0=    0 NMtDT0=    0
 Petite list used in FoFCou.
 Requested convergence on RMS density matrix=1.00D-08 within 128 cycles.
 Requested convergence on MAX density matrix=1.00D-06.
 Requested convergence on             energy=1.00D-06.
 No special actions if energy rises.
 Integral accuracy reduced to 1.0D-05 until final iterations.
 EnCoef did     2 forward-backward iterations
 EnCoef did     3 forward-backward iterations
 EnCoef did     4 forward-backward iterations
 Initial convergence to 1.0D-05 achieved.  Increase integral accuracy.
 SCF Done:  E(RB3LYP) =  -475.762296973     A.U. after   21 cycles
            NFock= 21  Conv=0.78D-08     -V/T= 2.0046

 **********************************************************************

            Population analysis using the SCF density.

 **********************************************************************

 Orbital symmetries:
       Occupied  (A) (A) (A) (A) (A) (A) (A) (A) (A) (A) (A) (A)
                 (A) (A) (A) (A) (A) (A) (A) (A) (A) (A) (A) (A)
                 (A) (A) (A) (A) (A) (A) (A) (A) (A) (A) (A) (A)
       Virtual   (A) (A) (A) (A) (A) (A) (A) (A) (A) (A) (A) (A)
                 (A) (A) (A) (A) (A) (A) (A) (A) (A) (A) (A) (A)
                 (A) (A) (A) (A) (A) (A) (A) (A) (A) (A) (A) (A)
                 (A) (A) (A) (A) (A) (A) (A) (A) (A) (A) (A) (A)
                 (A) (A) (A) (A) (A) (A) (A) (A) (A) (A) (A) (A)
                 (A) (A) (A) (A) (A) (A) (A) (A) (A) (A) (A) (A)
                 (A) (A) (A) (A) (A) (A) (A) (A) (A) (A) (A) (A)
                 (A) (A) (A) (A) (A) (A) (A) (A) (A) (A) (A) (A)
                 (A) (A) (A) (A) (A) (A) (A) (A) (A) (A) (A) (A)
                 (A) (A) (A) (A) (A) (A) (A) (A) (A) (A) (A) (A)
                 (A) (A) (A) (A) (A) (A) (A) (A) (A) (A) (A) (A)
                 (A) (A) (A) (A) (A) (A) (A) (A) (A) (A) (A) (A)
                 (A) (A) (A) (A) (A) (A) (A) (A) (A) (A) (A) (A)
                 (A) (A) (A) (A) (A) (A) (A) (A) (A) (A) (A) (A)
                 (A) (A) (A) (A) (A) (A) (A) (A) (A) (A) (A) (A)
                 (A) (A) (A) (A) (A) (A) (A) (A) (A) (A) (A) (A)
                 (A) (A) (A) (A) (A) (A) (A) (A) (A) (A) (A) (A)
                 (A) (A) (A) (A) (A) (A) (A) (A) (A) (A) (A) (A)
                 (A) (A) (A) (A) (A) (A) (A) (A) (A) (A) (A) (A)
                 (A) (A) (A) (A) (A) (A) (A) (A) (A) (A) (A) (A)
                 (A) (A) (A) (A) (A) (A) (A) (A) (A) (A) (A) (A)
                 (A) (A) (A) (A) (A) (A) (A) (A) (A) (A) (A) (A)
                 (A) (A) (A) (A) (A) (A) (A) (A) (A) (A) (A) (A)
                 (A) (A) (A) (A) (A) (A) (A) (A) (A) (A) (A) (A)
                 (A) (A) (A) (A) (A) (A) (A) (A) (A) (A) (A) (A)
                 (A) (A) (A) (A) (A) (A) (A) (A) (A) (A)
 The electronic state is 1-A.
 Alpha  occ. eigenvalues --  -19.05042 -18.98762 -14.05799 -10.18713 -10.03668
 Alpha  occ. eigenvalues --  -10.02044 -10.01267  -9.99863  -9.99317  -9.99137
 Alpha  occ. eigenvalues --   -0.95399  -0.87193  -0.71359  -0.65366  -0.60600
 Alpha  occ. eigenvalues --   -0.54134  -0.50929  -0.43994  -0.43144  -0.36027
 Alpha  occ. eigenvalues --   -0.35648  -0.32111  -0.30436  -0.30155  -0.29186
 Alpha  occ. eigenvalues --   -0.27010  -0.25309  -0.22036  -0.20783  -0.19740
 Alpha  occ. eigenvalues --   -0.19013  -0.15066  -0.12659  -0.10863  -0.04909
 Alpha  occ. eigenvalues --    0.00603
 Alpha virt. eigenvalues --    0.09061   0.13568   0.16981   0.19116   0.20875
 Alpha virt. eigenvalues --    0.20978   0.23071   0.24615   0.25141   0.26996
 Alpha virt. eigenvalues --    0.29021   0.30337   0.30605   0.33291   0.35154
 Alpha virt. eigenvalues --    0.35438   0.36535   0.37325   0.37814   0.39564
 Alpha virt. eigenvalues --    0.40810   0.41183   0.42176   0.44125   0.44201
 Alpha virt. eigenvalues --    0.45812   0.47272   0.47533   0.50300   0.51021
 Alpha virt. eigenvalues --    0.51143   0.52069   0.52854   0.54157   0.54512
 Alpha virt. eigenvalues --    0.55032   0.55970   0.58593   0.58982   0.60059
 Alpha virt. eigenvalues --    0.60290   0.61423   0.62112   0.62570   0.63595
 Alpha virt. eigenvalues --    0.64196   0.66892   0.67538   0.68831   0.69745
 Alpha virt. eigenvalues --    0.70945   0.74047   0.76129   0.77894   0.78143
 Alpha virt. eigenvalues --    0.79813   0.80940   0.82660   0.84329   0.86586
 Alpha virt. eigenvalues --    0.86928   0.87134   0.88161   0.90268   0.90464
 Alpha virt. eigenvalues --    0.92541   0.93614   0.94229   0.94482   0.98896
 Alpha virt. eigenvalues --    1.00370   1.02289   1.03850   1.05332   1.07528
 Alpha virt. eigenvalues --    1.07911   1.10140   1.10695   1.14953   1.20077
 Alpha virt. eigenvalues --    1.20833   1.22552   1.25957   1.26866   1.26914
 Alpha virt. eigenvalues --    1.27967   1.33989   1.35946   1.37279   1.38630
 Alpha virt. eigenvalues --    1.41275   1.41535   1.42535   1.44578   1.47813
 Alpha virt. eigenvalues --    1.48122   1.50837   1.51757   1.53226   1.56326
 Alpha virt. eigenvalues --    1.57654   1.58489   1.60230   1.63673   1.64668
 Alpha virt. eigenvalues --    1.65991   1.67077   1.69599   1.71220   1.72084
 Alpha virt. eigenvalues --    1.73330   1.74413   1.78383   1.78609   1.81561
 Alpha virt. eigenvalues --    1.82007   1.84034   1.86716   1.87215   1.87310
 Alpha virt. eigenvalues --    1.90981   1.94159   1.98178   1.99807   2.02223
 Alpha virt. eigenvalues --    2.02414   2.03736   2.04711   2.08316   2.08974
 Alpha virt. eigenvalues --    2.12190   2.15413   2.15646   2.16445   2.16701
 Alpha virt. eigenvalues --    2.23835   2.25045   2.26914   2.28616   2.29390
 Alpha virt. eigenvalues --    2.30391   2.32479   2.33154   2.37568   2.39781
 Alpha virt. eigenvalues --    2.40677   2.41098   2.43720   2.46862   2.52445
 Alpha virt. eigenvalues --    2.52959   2.56944   2.59909   2.63007   2.65885
 Alpha virt. eigenvalues --    2.68699   2.72322   2.72660   2.75720   2.77361
 Alpha virt. eigenvalues --    2.79063   2.79782   2.82132   2.83559   2.84049
 Alpha virt. eigenvalues --    2.84206   2.87941   2.89976   2.90299   2.92297
 Alpha virt. eigenvalues --    2.93110   2.95524   2.96244   2.98879   2.99153
 Alpha virt. eigenvalues --    3.01381   3.03033   3.04081   3.04675   3.07462
 Alpha virt. eigenvalues --    3.07708   3.10566   3.10823   3.13512   3.14739
 Alpha virt. eigenvalues --    3.16125   3.20948   3.22539   3.25056   3.26740
 Alpha virt. eigenvalues --    3.28911   3.30575   3.30711   3.31929   3.32362
 Alpha virt. eigenvalues --    3.35103   3.35423   3.36000   3.37260   3.39493
 Alpha virt. eigenvalues --    3.41114   3.44129   3.44308   3.46853   3.48718
 Alpha virt. eigenvalues --    3.49809   3.50652   3.52755   3.55149   3.55551
 Alpha virt. eigenvalues --    3.56370   3.59916   3.60072   3.61996   3.65500
 Alpha virt. eigenvalues --    3.66355   3.68156   3.68478   3.68550   3.74850
 Alpha virt. eigenvalues --    3.76477   3.76852   3.83041   3.88656   3.90380
 Alpha virt. eigenvalues --    3.93400   3.94008   3.96355   3.99501   4.00786
 Alpha virt. eigenvalues --    4.01167   4.12190   4.15054   4.17885   4.19136
 Alpha virt. eigenvalues --    4.23675   4.25362   4.29469   4.29687   4.34093
 Alpha virt. eigenvalues --    4.37727   4.39001   4.41065   4.41460   4.45257
 Alpha virt. eigenvalues --    4.47678   4.48306   4.56006   4.58144   4.64355
 Alpha virt. eigenvalues --    4.64892   4.66994   4.79041   4.81214   4.85926
 Alpha virt. eigenvalues --    4.87173   4.88649   4.94945   4.99496   5.01624
 Alpha virt. eigenvalues --    5.05162   5.08104   5.10665   5.17137   5.23318
 Alpha virt. eigenvalues --    5.25166   5.29738   5.32702   5.34527   5.37973
 Alpha virt. eigenvalues --    5.41117   5.44022   5.44769   5.48313   5.53325
 Alpha virt. eigenvalues --    5.55430   5.58981   5.64574   5.73442   5.74847
 Alpha virt. eigenvalues --    5.80143   5.83992   5.85182   5.96888   6.04535
 Alpha virt. eigenvalues --    6.12874   6.14919   6.34675   6.41632   6.41993
 Alpha virt. eigenvalues --    6.52616   6.59870   6.72547   6.76460   6.85950
 Alpha virt. eigenvalues --    6.92266   7.05792   7.13161   7.22681   7.38676
 Alpha virt. eigenvalues --   22.37671  22.79478  22.93920  23.02299  23.05527
 Alpha virt. eigenvalues --   23.24277  23.53908  32.28604  43.84539  43.95834
          Condensed to atoms (all electrons):
               1          2          3          4          5          6
     1  C    5.403888   0.343481   0.028580  -0.117224  -0.094736   0.359856
     2  C    0.343481   5.081125   0.363044   0.124824  -0.247642   0.110175
     3  C    0.028580   0.363044   5.321473   0.141174   0.484180  -0.323603
     4  C   -0.117224   0.124824   0.141174   5.162766  -0.282684   0.422467
     5  C   -0.094736  -0.247642   0.484180  -0.282684   7.043353  -0.844519
     6  C    0.359856   0.110175  -0.323603   0.422467  -0.844519   6.535985
     7  H    0.445327  -0.085010   0.012423  -0.004201   0.015863  -0.052388
     8  H   -0.095043   0.457222  -0.088863   0.028338  -0.010061   0.018904
     9  H    0.029432  -0.120951   0.455542  -0.108148   0.062416  -0.021244
    10  N   -0.000864   0.020132  -0.166926   0.733590  -0.397895   0.138588
    11  H    0.009476  -0.000991   0.014050  -0.080957   0.489547  -0.091649
    12  H   -0.001097   0.001740  -0.018967  -0.190287  -0.038842   0.027431
    13  C   -0.042237  -0.018779   0.028070  -0.054495   0.151249  -0.080850
    14  O    0.005550   0.000349  -0.000342  -0.000788   0.014526  -0.187908
    15  O    0.021320   0.000159  -0.000091   0.000691   0.000972  -0.134748
    16  H   -0.005143  -0.000179   0.000088  -0.000195   0.001391   0.026856
               7          8          9         10         11         12
     1  C    0.445327  -0.095043   0.029432  -0.000864   0.009476  -0.001097
     2  C   -0.085010   0.457222  -0.120951   0.020132  -0.000991   0.001740
     3  C    0.012423  -0.088863   0.455542  -0.166926   0.014050  -0.018967
     4  C   -0.004201   0.028338  -0.108148   0.733590  -0.080957  -0.190287
     5  C    0.015863  -0.010061   0.062416  -0.397895   0.489547  -0.038842
     6  C   -0.052388   0.018904  -0.021244   0.138588  -0.091649   0.027431
     7  H    0.620311  -0.011162  -0.000239  -0.000022  -0.000577  -0.000016
     8  H   -0.011162   0.680567  -0.020634   0.000119   0.000170   0.000116
     9  H   -0.000239  -0.020634   0.717884  -0.003604  -0.000168  -0.006713
    10  N   -0.000022   0.000119  -0.003604   6.799891  -0.017720   0.416987
    11  H   -0.000577   0.000170  -0.000168  -0.017720   0.596076   0.001605
    12  H   -0.000016   0.000116  -0.006713   0.416987   0.001605   0.683149
    13  C   -0.012879  -0.000980   0.001168  -0.008261  -0.009951  -0.001636
    14  O    0.000276   0.000013  -0.000004   0.000016   0.020427  -0.000046
    15  O    0.011134  -0.000059  -0.000003   0.000006   0.001099   0.000001
    16  H   -0.000552  -0.000007   0.000001  -0.000004  -0.000172  -0.000001
              13         14         15         16
     1  C   -0.042237   0.005550   0.021320  -0.005143
     2  C   -0.018779   0.000349   0.000159  -0.000179
     3  C    0.028070  -0.000342  -0.000091   0.000088
     4  C   -0.054495  -0.000788   0.000691  -0.000195
     5  C    0.151249   0.014526   0.000972   0.001391
     6  C   -0.080850  -0.187908  -0.134748   0.026856
     7  H   -0.012879   0.000276   0.011134  -0.000552
     8  H   -0.000980   0.000013  -0.000059  -0.000007
     9  H    0.001168  -0.000004  -0.000003   0.000001
    10  N   -0.008261   0.000016   0.000006  -0.000004
    11  H   -0.009951   0.020427   0.001099  -0.000172
    12  H   -0.001636  -0.000046   0.000001  -0.000001
    13  C    4.699102   0.687834   0.380391  -0.031541
    14  O    0.687834   7.942312  -0.094529   0.009201
    15  O    0.380391  -0.094529   7.956679   0.266527
    16  H   -0.031541   0.009201   0.266527   0.447262
 Mulliken charges:
               1
     1  C   -0.290566
     2  C   -0.028699
     3  C   -0.249834
     4  C    0.225129
     5  C   -0.347118
     6  C    0.096647
     7  H    0.061711
     8  H    0.041363
     9  H    0.015264
    10  N   -0.514033
    11  H    0.069735
    12  H    0.126575
    13  C    0.313795
    14  O   -0.396888
    15  O   -0.409549
    16  H    0.286468
 Sum of Mulliken charges =  -1.00000
 Mulliken charges with hydrogens summed into heavy atoms:
               1
     1  C   -0.228855
     2  C    0.012664
     3  C   -0.234570
     4  C    0.225129
     5  C   -0.277383
     6  C    0.096647
    10  N   -0.387458
    13  C    0.313795
    14  O   -0.396888
    15  O   -0.123081
 Electronic spatial extent (au):  <R**2>=           1557.9801
 Charge=             -1.0000 electrons
 Dipole moment (field-independent basis, Debye):
    X=              6.1432    Y=              2.7456    Z=              0.0121  Tot=              6.7288
 Quadrupole moment (field-independent basis, Debye-Ang):
   XX=            -87.3458   YY=            -70.6039   ZZ=            -64.2625
   XY=             -4.8436   XZ=             -0.0274   YZ=             -0.0310
 Traceless Quadrupole moment (field-independent basis, Debye-Ang):
   XX=            -13.2750   YY=              3.4668   ZZ=              9.8082
   XY=             -4.8436   XZ=             -0.0274   YZ=             -0.0310
 Octapole moment (field-independent basis, Debye-Ang**2):
  XXX=            135.8834  YYY=             -1.7474  ZZZ=             -0.0602  XYY=              1.6237
  XXY=             41.1675  XXZ=             -0.1015  XZZ=             14.6068  YZZ=             -3.6318
  YYZ=             -0.0058  XYZ=              0.0173
 Hexadecapole moment (field-independent basis, Debye-Ang**3):
 XXXX=          -1582.9414 YYYY=           -581.1723 ZZZZ=            -73.5657 XXXY=            -95.9564
 XXXZ=             -1.2950 YYYX=             13.6103 YYYZ=             -0.0652 ZZZX=             -0.1916
 ZZZY=             -0.0132 XXYY=           -417.5352 XXZZ=           -268.8531 YYZZ=           -120.7396
 XXYZ=             -0.2981 YYXZ=             -0.0675 ZZXY=             -3.8974
 N-N= 4.741625642694D+02 E-N=-2.072344610278D+03  KE= 4.736029839732D+02
   1 Symmetry operations used in ECPInt.
 ECPInt:  NShTT=    9045 NPrTT=   28204 LenC2=    8649 LenP2D=   20966.
 LDataN:  DoStor=T MaxTD1= 7 Len=  274
 Calling FoFJK, ICntrl=      2127 FMM=F ISym2X=0 I1Cent= 0 IOpClX= 0 NMat=1 NMatS=1 NMatT=0.
 ***** Axes restored to original set *****
 -------------------------------------------------------------------
 Center     Atomic                   Forces (Hartrees/Bohr)
 Number     Number              X              Y              Z
 -------------------------------------------------------------------
      1        6           0.006894998   -0.014062198    0.000125398
      2        6          -0.016208105   -0.014072943    0.000001835
      3        6           0.011989562   -0.005396483   -0.000022215
      4        6          -0.025567354    0.072483342   -0.000094413
      5        6          -0.014182714   -0.008253549    0.000160943
      6        6          -0.015957509   -0.056891123    0.000977590
      7        1          -0.000577099   -0.008452304    0.000023744
      8        1           0.009015368   -0.006831722   -0.000030591
      9        1           0.005293388    0.009178911   -0.000014021
     10        7           0.043457243    0.002481448   -0.000114039
     11        1          -0.006041982    0.004913613    0.000015451
     12        1          -0.018906527   -0.010699367    0.000065381
     13        6          -0.040955230    0.032384338   -0.004331860
     14        8           0.049382346   -0.044079346    0.001839245
     15        8           0.021404349    0.039103807    0.001368462
     16        1          -0.009040733    0.008193574    0.000029090
 -------------------------------------------------------------------
 Cartesian Forces:  Max     0.072483342 RMS     0.021677112

 GradGradGradGradGradGradGradGradGradGradGradGradGradGradGradGradGradGrad
 Berny optimization.
 FormGI is forming the generalized inverse of G from B-inverse, IUseBI=4.
 Internal  Forces:  Max     0.064454575 RMS     0.015606149
 Search for a local minimum.
 Step number   1 out of a maximum of   81
 All quantities printed in internal units (Hartrees-Bohrs-Radians)
 Mixed Optimization -- RFO/linear search
 Second derivative matrix not updated -- first step.
 ITU=  0
     Eigenvalues ---    0.00237   0.00593   0.01295   0.01701   0.02070
     Eigenvalues ---    0.02070   0.02137   0.02279   0.02313   0.02376
     Eigenvalues ---    0.02464   0.02473   0.02516   0.16000   0.16000
     Eigenvalues ---    0.16000   0.16000   0.16000   0.16000   0.22000
     Eigenvalues ---    0.23472   0.23494   0.24996   0.25000   0.25000
     Eigenvalues ---    0.25000   0.28519   0.37230   0.37230   0.37230
     Eigenvalues ---    0.37230   0.40989   0.41362   0.43364   0.45389
     Eigenvalues ---    0.45389   0.47688   0.50975   0.53930   0.55473
     Eigenvalues ---    0.57723   0.80209
 RFO step:  Lambda=-4.25196994D-02 EMin= 2.36824231D-03
 Linear search not attempted -- first point.
 Maximum step size (   0.300) exceeded in Quadratic search.
    -- Step size scaled by   0.842
 Iteration  1 RMS(Cart)=  0.05494179 RMS(Int)=  0.00160081
 Iteration  2 RMS(Cart)=  0.00195785 RMS(Int)=  0.00017054
 Iteration  3 RMS(Cart)=  0.00000277 RMS(Int)=  0.00017053
 Iteration  4 RMS(Cart)=  0.00000000 RMS(Int)=  0.00017053
 Variable       Old X    -DE/DX   Delta X   Delta X   Delta X     New X
                                 (Linear)    (Quad)   (Total)
    R1        2.64826   0.00014   0.00000  -0.00148  -0.00169   2.64658
    R2        2.64826   0.00575   0.00000   0.00867   0.00844   2.65670
    R3        2.02201   0.00843   0.00000   0.01712   0.01712   2.03913
    R4        2.56096   0.03140   0.00000   0.04490   0.04493   2.60588
    R5        2.02201   0.01118   0.00000   0.02270   0.02270   2.04471
    R6        2.64826   0.02758   0.00000   0.04788   0.04811   2.69637
    R7        2.02201   0.00931   0.00000   0.01890   0.01890   2.04091
    R8        2.64826   0.03222   0.00000   0.05639   0.05660   2.70486
    R9        2.52789  -0.00886   0.00000  -0.01204  -0.01204   2.51585
   R10        2.56096   0.03339   0.00000   0.04888   0.04885   2.60981
   R11        2.02201   0.00765   0.00000   0.01554   0.01554   2.03755
   R12        2.91018  -0.03633   0.00000  -0.09337  -0.09337   2.81681
   R13        1.88973   0.01151   0.00000   0.01866   0.01866   1.90839
   R14        2.37803  -0.06445   0.00000  -0.06427  -0.06427   2.31376
   R15        2.70231  -0.04697   0.00000  -0.08744  -0.08744   2.61487
   R16        1.81414   0.00551   0.00000   0.00777   0.00777   1.82191
    A1        2.09440  -0.01001   0.00000  -0.03818  -0.03864   2.05575
    A2        2.09440   0.00581   0.00000   0.02245   0.02268   2.11707
    A3        2.09440   0.00420   0.00000   0.01573   0.01597   2.11036
    A4        2.09440   0.00996   0.00000   0.02671   0.02652   2.12091
    A5        2.09440  -0.00670   0.00000  -0.02051  -0.02041   2.07398
    A6        2.09440  -0.00326   0.00000  -0.00620  -0.00610   2.08829
    A7        2.09440   0.00926   0.00000   0.02971   0.02997   2.12436
    A8        2.09440   0.00049   0.00000   0.00642   0.00629   2.10069
    A9        2.09440  -0.00975   0.00000  -0.03613  -0.03626   2.05814
   A10        2.09440  -0.02533   0.00000  -0.06885  -0.06838   2.02602
   A11        2.09440  -0.00068   0.00000  -0.00398  -0.00422   2.09018
   A12        2.09440   0.02601   0.00000   0.07283   0.07260   2.16699
   A13        2.09440   0.00576   0.00000   0.02217   0.02236   2.11675
   A14        2.09440  -0.00433   0.00000  -0.01712  -0.01721   2.07718
   A15        2.09440  -0.00143   0.00000  -0.00505  -0.00515   2.08925
   A16        2.09440   0.01036   0.00000   0.02844   0.02818   2.12258
   A17        2.09440  -0.00329   0.00000  -0.00879  -0.00866   2.08574
   A18        2.09440  -0.00707   0.00000  -0.01965  -0.01952   2.07487
   A19        2.09440  -0.03482   0.00000  -0.14479  -0.14479   1.94961
   A20        2.09375   0.02966   0.00000   0.08556   0.08546   2.17921
   A21        2.09454  -0.02329   0.00000  -0.06688  -0.06698   2.02756
   A22        2.09458  -0.00633   0.00000  -0.01806  -0.01816   2.07642
   A23        1.91063  -0.01975   0.00000  -0.08212  -0.08212   1.82851
    D1        0.00000   0.00003   0.00000   0.00040   0.00040   0.00040
    D2        3.14159   0.00002   0.00000   0.00032   0.00031  -3.14128
    D3       -3.14159  -0.00000   0.00000  -0.00002  -0.00002   3.14158
    D4       -0.00000  -0.00001   0.00000  -0.00010  -0.00010  -0.00011
    D5       -0.00000  -0.00005   0.00000  -0.00065  -0.00065  -0.00065
    D6        3.14159  -0.00005   0.00000  -0.00059  -0.00058   3.14101
    D7        3.14159  -0.00002   0.00000  -0.00023  -0.00023   3.14136
    D8       -0.00000  -0.00001   0.00000  -0.00017  -0.00017  -0.00017
    D9       -0.00000  -0.00001   0.00000  -0.00008  -0.00009  -0.00009
   D10        3.14159  -0.00001   0.00000  -0.00016  -0.00016   3.14143
   D11       -3.14159   0.00000   0.00000   0.00001   0.00000  -3.14159
   D12       -0.00000  -0.00001   0.00000  -0.00007  -0.00008  -0.00008
   D13       -0.00000   0.00000   0.00000  -0.00000  -0.00001  -0.00001
   D14        3.14159  -0.00001   0.00000  -0.00013  -0.00013   3.14146
   D15       -3.14159   0.00001   0.00000   0.00008   0.00007  -3.14152
   D16       -0.00000  -0.00000   0.00000  -0.00005  -0.00005  -0.00005
   D17        0.00000  -0.00002   0.00000  -0.00025  -0.00024  -0.00024
   D18        3.14159   0.00001   0.00000   0.00010   0.00011  -3.14148
   D19       -3.14159  -0.00001   0.00000  -0.00012  -0.00011   3.14148
   D20        0.00000   0.00002   0.00000   0.00023   0.00024   0.00024
   D21       -3.14159   0.00000   0.00000   0.00004   0.00004  -3.14155
   D22       -0.00000  -0.00001   0.00000  -0.00009  -0.00010  -0.00010
   D23        0.00000   0.00004   0.00000   0.00057   0.00058   0.00058
   D24       -3.14159   0.00004   0.00000   0.00051   0.00051  -3.14108
   D25       -3.14159   0.00002   0.00000   0.00022   0.00023  -3.14136
   D26        0.00000   0.00001   0.00000   0.00016   0.00016   0.00017
   D27       -3.12817  -0.00070   0.00000  -0.01340  -0.01366   3.14136
   D28       -0.01343   0.00068   0.00000   0.01309   0.01335  -0.00008
   D29        0.01343  -0.00069   0.00000  -0.01334  -0.01359  -0.00017
   D30        3.12817   0.00068   0.00000   0.01316   0.01341   3.14158
   D31       -3.12816  -0.00094   0.00000  -0.01371  -0.01316  -3.14132
   D32       -0.01343   0.00099   0.00000   0.01440   0.01385   0.00041
         Item               Value     Threshold  Converged?
 Maximum Force            0.064455     0.000450     NO 
 RMS     Force            0.015606     0.000300     NO 
 Maximum Displacement     0.186876     0.001800     NO 
 RMS     Displacement     0.054976     0.001200     NO 
 Predicted change in Energy=-2.266283D-02
 GradGradGradGradGradGradGradGradGradGradGradGradGradGradGradGradGradGrad

                          Input orientation:                          
 ---------------------------------------------------------------------
 Center     Atomic      Atomic             Coordinates (Angstroms)
 Number     Number       Type             X           Y           Z
 ---------------------------------------------------------------------
      1          6           0        0.045419   -1.841805   -0.000653
      2          6           0        1.227489   -1.090718   -0.001536
      3          6           0        1.205525    0.288081   -0.000983
      4          6           0       -0.020034    1.018784    0.000409
      5          6           0       -1.218919    0.236839    0.001185
      6          6           0       -1.174759   -1.143505    0.000325
      7          1           0        0.066747   -2.920656   -0.001103
      8          1           0        2.176231   -1.610951   -0.002591
      9          1           0        2.128604    0.848731   -0.001528
     10          7           0        0.004269    2.349893    0.001049
     11          1           0       -2.172055    0.740919    0.002139
     12          1           0       -0.927036    2.740428    0.002060
     13          6           0       -2.456262   -1.904826    0.000527
     14          8           0       -3.571058   -1.398505    0.001579
     15          8           0       -2.346655   -3.284206   -0.000383
     16          1           0       -3.256534   -3.603009   -0.000354
 ---------------------------------------------------------------------
                    Distance matrix (angstroms):
                    1          2          3          4          5
     1  C    0.000000
     2  C    1.400508   0.000000
     3  C    2.425337   1.378974   0.000000
     4  C    2.861339   2.450779   1.426858   0.000000
     5  C    2.432965   2.783403   2.424987   1.431350   0.000000
     6  C    1.405866   2.402828   2.777623   2.451303   1.381051
     7  H    1.079061   2.167024   3.404821   3.940396   3.409211
     8  H    2.143282   1.082014   2.132744   3.426237   3.865409
     9  H    3.402741   2.138567   1.080001   2.155358   3.402988
    10  N    4.191901   3.651586   2.386229   1.331331   2.441554
    11  H    3.404066   3.861581   3.407803   2.169887   1.078223
    12  H    4.684287   4.395416   3.249898   1.945948   2.520546
    13  C    2.502475   3.772639   4.268200   3.805615   2.473409
    14  O    3.643546   4.808409   5.065602   4.295703   2.864770
    15  O    2.793303   4.193555   5.037779   4.891717   3.697236
    16  H    3.742290   5.139851   5.920351   5.642332   4.346989
                    6          7          8          9         10
     6  C    0.000000
     7  H    2.167857   0.000000
     8  H    3.383437   2.482992   0.000000
     9  H    3.857617   4.296455   2.460143   0.000000
    10  N    3.686996   5.270920   4.517269   2.601210   0.000000
    11  H    2.132055   4.291780   4.943573   4.302012   2.706508
    12  H    3.891826   5.747651   5.344604   3.593810   1.009876
    13  C    1.490591   2.719832   4.641806   5.348185   4.914962
    14  O    2.409829   3.943422   5.751216   6.126681   5.180102
    15  O    2.440481   2.440631   4.822477   6.091725   6.104910
    16  H    3.222258   3.392610   5.786470   6.986966   6.787480
                   11         12         13         14         15
    11  H    0.000000
    12  H    2.355443   0.000000
    13  C    2.660967   4.890493   0.000000
    14  O    2.556236   4.911376   1.224390   0.000000
    15  O    4.028911   6.189632   1.383728   2.248341   0.000000
    16  H    4.477255   6.757645   1.877301   2.226829   0.964113
                   16
    16  H    0.000000
 Stoichiometry    C7H6NO2(1-)
 Framework group  C1[X(C7H6NO2)]
 Deg. of freedom    42
 Full point group                 C1      NOp   1
 Largest Abelian subgroup         C1      NOp   1
 Largest concise Abelian subgroup C1      NOp   1
                         Standard orientation:                         
 ---------------------------------------------------------------------
 Center     Atomic      Atomic             Coordinates (Angstroms)
 Number     Number       Type             X           Y           Z
 ---------------------------------------------------------------------
      1          6           0        0.184010    1.449670    0.000410
      2          6           0       -1.169210    1.810528   -0.000061
      3          6           0       -2.168663    0.860443   -0.000241
      4          6           0       -1.876085   -0.536097   -0.000062
      5          6           0       -0.488775   -0.888423    0.000308
      6          6           0        0.496781    0.079038    0.000197
      7          1           0        0.963234    2.196117    0.000536
      8          1           0       -1.429122    2.860861   -0.000202
      9          1           0       -3.206358    1.159763   -0.000451
     10          7           0       -2.871794   -1.419842   -0.000097
     11          1           0       -0.214002   -1.931048    0.000353
     12          1           0       -2.528278   -2.369497    0.000078
     13          6           0        1.924881   -0.348037   -0.000075
     14          8           0        2.307504   -1.511107   -0.000042
     15          8           0        2.865397    0.666917   -0.000192
     16          1           0        3.716233    0.213494   -0.000614
 ---------------------------------------------------------------------
 Rotational constants (GHZ):           2.7519541           0.9509090           0.7067121
 Standard basis: def2TZVP (5D, 7F)
 There are   396 symmetry adapted cartesian basis functions of A   symmetry.
 There are   346 symmetry adapted basis functions of A   symmetry.
   346 basis functions,   558 primitive gaussians,   396 cartesian basis functions
    36 alpha electrons       36 beta electrons
       nuclear repulsion energy       475.9690839895 Hartrees.
 NAtoms=   16 NActive=   16 NUniq=   16 SFac= 1.00D+00 NAtFMM=   60 NAOKFM=F Big=F
 Integral buffers will be    131072 words long.
 Raffenetti 2 integral format.
 Two-electron integral symmetry is turned on.
 One-electron integrals computed using PRISM.
   1 Symmetry operations used in ECPInt.
 ECPInt:  NShTT=    9045 NPrTT=   28204 LenC2=    8662 LenP2D=   21001.
 LDataN:  DoStor=T MaxTD1= 6 Len=  172
 NBasis=   346 RedAO= T EigKep=  9.40D-06  NBF=   346
 NBsUse=   346 1.00D-06 EigRej= -1.00D+00 NBFU=   346
 Initial guess from the checkpoint file:  "C6H5NH-.chk"
 B after Tr=     0.000000   -0.000000   -0.000000
         Rot=    0.999979   -0.000009   -0.000012    0.006503 Ang=  -0.75 deg.
 ExpMin= 9.52D-02 ExpMax= 2.70D+04 ExpMxC= 9.22D+02 IAcc=2 IRadAn=         4 AccDes= 0.00D+00
 Harris functional with IExCor=  402 and IRadAn=       4 diagonalized for initial guess.
 HarFok:  IExCor=  402 AccDes= 0.00D+00 IRadAn=         4 IDoV= 1 UseB2=F ITyADJ=14
 ICtDFT=  3500011 ScaDFX=  1.000000  1.000000  1.000000  1.000000
 FoFCou: FMM=F IPFlag=           0 FMFlag=      100000 FMFlg1=           0
         NFxFlg=           0 DoJE=T BraDBF=F KetDBF=T FulRan=T
         wScrn=  0.000000 ICntrl=       500 IOpCl=  0 I1Cent=   200000004 NGrid=           0
         NMat0=    1 NMatS0=      1 NMatT0=    0 NMatD0=    1 NMtDS0=    0 NMtDT0=    0
 Petite list used in FoFCou.
 Requested convergence on RMS density matrix=1.00D-08 within 128 cycles.
 Requested convergence on MAX density matrix=1.00D-06.
 Requested convergence on             energy=1.00D-06.
 No special actions if energy rises.
 Integral accuracy reduced to 1.0D-05 until final iterations.
 Initial convergence to 1.0D-05 achieved.  Increase integral accuracy.
 SCF Done:  E(RB3LYP) =  -475.785334767     A.U. after   14 cycles
            NFock= 14  Conv=0.77D-08     -V/T= 2.0046
   1 Symmetry operations used in ECPInt.
 ECPInt:  NShTT=    9045 NPrTT=   28204 LenC2=    8662 LenP2D=   21001.
 LDataN:  DoStor=T MaxTD1= 7 Len=  274
 Calling FoFJK, ICntrl=      2127 FMM=F ISym2X=0 I1Cent= 0 IOpClX= 0 NMat=1 NMatS=1 NMatT=0.
 ***** Axes restored to original set *****
 -------------------------------------------------------------------
 Center     Atomic                   Forces (Hartrees/Bohr)
 Number     Number              X              Y              Z
 -------------------------------------------------------------------
      1        6           0.004106262   -0.002058235   -0.000040925
      2        6          -0.005487962    0.000145407    0.000023868
      3        6           0.003861436   -0.011233563   -0.000011264
      4        6          -0.009280313    0.027644615    0.000049619
      5        6           0.001767051   -0.004658757   -0.000037535
      6        6          -0.006911962   -0.019784347    0.000016700
      7        1          -0.000317303   -0.000349067   -0.000007316
      8        1           0.003146809   -0.000988856    0.000002296
      9        1           0.001550220    0.002704239   -0.000005923
     10        7           0.015193020   -0.003216683   -0.000020510
     11        1          -0.002923149    0.000875715   -0.000000574
     12        1          -0.009057603   -0.002131579    0.000006645
     13        6          -0.008893492    0.012621957    0.000058034
     14        8           0.010444702   -0.010452235   -0.000029652
     15        8           0.006567880    0.010147692   -0.000011873
     16        1          -0.003765596    0.000733696    0.000008411
 -------------------------------------------------------------------
 Cartesian Forces:  Max     0.027644615 RMS     0.007191128

 GradGradGradGradGradGradGradGradGradGradGradGradGradGradGradGradGradGrad
 Berny optimization.
 Using GEDIIS/GDIIS optimizer.
 FormGI is forming the generalized inverse of G from B-inverse, IUseBI=4.
 Internal  Forces:  Max     0.013831236 RMS     0.004273989
 Search for a local minimum.
 Step number   2 out of a maximum of   81
 All quantities printed in internal units (Hartrees-Bohrs-Radians)
 Mixed Optimization -- RFO/linear search
 Update second derivatives using D2CorX and points    1    2
 DE= -2.30D-02 DEPred=-2.27D-02 R= 1.02D+00
 TightC=F SS=  1.41D+00  RLast= 3.02D-01 DXNew= 5.0454D-01 9.0539D-01
 Trust test= 1.02D+00 RLast= 3.02D-01 DXMaxT set to 5.05D-01
 ITU=  1  0
 Use linear search instead of GDIIS.
     Eigenvalues ---    0.00237   0.00562   0.01295   0.01720   0.02070
     Eigenvalues ---    0.02070   0.02143   0.02284   0.02324   0.02378
     Eigenvalues ---    0.02469   0.02480   0.02516   0.15830   0.16000
     Eigenvalues ---    0.16000   0.16000   0.16000   0.16634   0.21994
     Eigenvalues ---    0.22399   0.23765   0.24499   0.25000   0.25000
     Eigenvalues ---    0.25527   0.28499   0.37092   0.37230   0.37230
     Eigenvalues ---    0.37330   0.40839   0.41477   0.43179   0.44968
     Eigenvalues ---    0.45492   0.47585   0.51038   0.54852   0.55554
     Eigenvalues ---    0.57678   0.80049
 RFO step:  Lambda=-1.01042773D-03 EMin= 2.36824291D-03
 Quartic linear search produced a step of  0.33608.
 Iteration  1 RMS(Cart)=  0.02641626 RMS(Int)=  0.00085790
 Iteration  2 RMS(Cart)=  0.00109257 RMS(Int)=  0.00043813
 Iteration  3 RMS(Cart)=  0.00000079 RMS(Int)=  0.00043813
 Variable       Old X    -DE/DX   Delta X   Delta X   Delta X     New X
                                 (Linear)    (Quad)   (Total)
    R1        2.64658  -0.00081  -0.00057  -0.00259  -0.00328   2.64329
    R2        2.65670   0.00182   0.00284   0.00140   0.00410   2.66080
    R3        2.03913   0.00034   0.00575  -0.00623  -0.00047   2.03866
    R4        2.60588   0.00258   0.01510  -0.01264   0.00246   2.60834
    R5        2.04471   0.00323   0.00763   0.00169   0.00932   2.05403
    R6        2.69637   0.01011   0.01617   0.00973   0.02603   2.72240
    R7        2.04091   0.00273   0.00635   0.00154   0.00789   2.04880
    R8        2.70486   0.00778   0.01902  -0.00016   0.01899   2.72385
    R9        2.51585  -0.00524  -0.00405  -0.00715  -0.01120   2.50465
   R10        2.60981   0.00737   0.01642  -0.00157   0.01484   2.62465
   R11        2.03755   0.00299   0.00522   0.00395   0.00917   2.04672
   R12        2.81681  -0.01041  -0.03138  -0.00596  -0.03734   2.77947
   R13        1.90839   0.00753   0.00627   0.01320   0.01948   1.92786
   R14        2.31376  -0.01383  -0.02160   0.00257  -0.01902   2.29474
   R15        2.61487  -0.01063  -0.02939   0.00295  -0.02643   2.58843
   R16        1.82191   0.00331   0.00261   0.00476   0.00737   1.82928
    A1        2.05575  -0.00188  -0.01299   0.00387  -0.00940   2.04635
    A2        2.11707   0.00127   0.00762  -0.00095   0.00681   2.12388
    A3        2.11036   0.00061   0.00537  -0.00292   0.00259   2.11295
    A4        2.12091   0.00289   0.00891   0.00085   0.00963   2.13054
    A5        2.07398  -0.00079  -0.00686   0.00882   0.00202   2.07600
    A6        2.08829  -0.00210  -0.00205  -0.00966  -0.01165   2.07664
    A7        2.12436   0.00381   0.01007   0.00718   0.01739   2.14175
    A8        2.10069  -0.00037   0.00211  -0.00206  -0.00001   2.10067
    A9        2.05814  -0.00344  -0.01219  -0.00512  -0.01738   2.04076
   A10        2.02602  -0.00935  -0.02298  -0.01632  -0.03901   1.98701
   A11        2.09018   0.00205  -0.00142   0.01220   0.01064   2.10082
   A12        2.16699   0.00730   0.02440   0.00411   0.02837   2.19536
   A13        2.11675   0.00422   0.00751   0.01657   0.02421   2.14097
   A14        2.07718  -0.00151  -0.00578  -0.00010  -0.00595   2.07123
   A15        2.08925  -0.00271  -0.00173  -0.01647  -0.01826   2.07099
   A16        2.12258   0.00030   0.00947  -0.01215  -0.00282   2.11975
   A17        2.08574   0.00351  -0.00291   0.02300   0.02016   2.10589
   A18        2.07487  -0.00381  -0.00656  -0.01085  -0.01734   2.05754
   A19        1.94961  -0.01043  -0.04866  -0.01027  -0.05893   1.89068
   A20        2.17921   0.01002   0.02872   0.01330   0.04013   2.21934
   A21        2.02756  -0.00802  -0.02251  -0.01121  -0.03552   1.99204
   A22        2.07642  -0.00200  -0.00610  -0.00208  -0.00993   2.06649
   A23        1.82851  -0.00353  -0.02760   0.01397  -0.01363   1.81488
    D1        0.00040  -0.00001   0.00013  -0.00124  -0.00111  -0.00070
    D2       -3.14128  -0.00001   0.00011  -0.00093  -0.00082   3.14109
    D3        3.14158  -0.00000  -0.00001  -0.00014  -0.00016   3.14142
    D4       -0.00011   0.00000  -0.00004   0.00017   0.00013   0.00002
    D5       -0.00065   0.00002  -0.00022   0.00191   0.00169   0.00104
    D6        3.14101   0.00001  -0.00020   0.00155   0.00134  -3.14084
    D7        3.14136   0.00001  -0.00008   0.00083   0.00074  -3.14108
    D8       -0.00017   0.00000  -0.00006   0.00046   0.00040   0.00023
    D9       -0.00009   0.00000  -0.00003   0.00030   0.00027   0.00019
   D10        3.14143   0.00001  -0.00006   0.00055   0.00050  -3.14126
   D11       -3.14159   0.00000   0.00000  -0.00001  -0.00002   3.14158
   D12       -0.00008   0.00000  -0.00003   0.00024   0.00021   0.00014
   D13       -0.00001  -0.00000  -0.00000   0.00003   0.00003   0.00003
   D14        3.14146   0.00000  -0.00004   0.00042   0.00037  -3.14135
   D15       -3.14152  -0.00000   0.00002  -0.00022  -0.00019   3.14148
   D16       -0.00005   0.00000  -0.00002   0.00017   0.00015   0.00010
   D17       -0.00024   0.00001  -0.00008   0.00063   0.00055   0.00031
   D18       -3.14148  -0.00000   0.00004  -0.00028  -0.00025   3.14145
   D19        3.14148   0.00000  -0.00004   0.00022   0.00019  -3.14151
   D20        0.00024  -0.00001   0.00008  -0.00069  -0.00061  -0.00037
   D21       -3.14155  -0.00000   0.00001  -0.00018  -0.00017   3.14146
   D22       -0.00010   0.00000  -0.00003   0.00024   0.00021   0.00011
   D23        0.00058  -0.00001   0.00019  -0.00164  -0.00145  -0.00087
   D24       -3.14108  -0.00001   0.00017  -0.00128  -0.00112   3.14099
   D25       -3.14136  -0.00001   0.00008  -0.00072  -0.00065   3.14117
   D26        0.00017  -0.00000   0.00006  -0.00036  -0.00031  -0.00015
   D27        3.14136   0.00001  -0.00459   0.06258   0.05842  -3.08340
   D28       -0.00008  -0.00000   0.00449  -0.05914  -0.05509  -0.05517
   D29       -0.00017   0.00001  -0.00457   0.06222   0.05809   0.05792
   D30        3.14158  -0.00001   0.00451  -0.05950  -0.05542   3.08616
   D31       -3.14132   0.00000  -0.00442   0.05573   0.05017  -3.09116
   D32        0.00041  -0.00001   0.00465  -0.05843  -0.05264  -0.05222
         Item               Value     Threshold  Converged?
 Maximum Force            0.013831     0.000450     NO 
 RMS     Force            0.004274     0.000300     NO 
 Maximum Displacement     0.088687     0.001800     NO 
 RMS     Displacement     0.026997     0.001200     NO 
 Predicted change in Energy=-2.275871D-03
 GradGradGradGradGradGradGradGradGradGradGradGradGradGradGradGradGradGrad

                          Input orientation:                          
 ---------------------------------------------------------------------
 Center     Atomic      Atomic             Coordinates (Angstroms)
 Number     Number       Type             X           Y           Z
 ---------------------------------------------------------------------
      1          6           0        0.046093   -1.859539    0.015107
      2          6           0        1.220085   -1.099245   -0.000807
      3          6           0        1.199400    0.280849   -0.009517
      4          6           0       -0.024205    1.041226   -0.002723
      5          6           0       -1.214911    0.229089    0.013942
      6          6           0       -1.175405   -1.159224    0.022923
      7          1           0        0.069436   -2.938078    0.021688
      8          1           0        2.178650   -1.611665   -0.006676
      9          1           0        2.126542    0.842710   -0.022149
     10          7           0        0.010177    2.366152   -0.011884
     11          1           0       -2.179643    0.721336    0.020127
     12          1           0       -0.949563    2.712019   -0.005014
     13          6           0       -2.455257   -1.883798    0.040617
     14          8           0       -3.570059   -1.404755   -0.007491
     15          8           0       -2.328413   -3.246273   -0.020716
     16          1           0       -3.241954   -3.565311   -0.047285
 ---------------------------------------------------------------------
                    Distance matrix (angstroms):
                    1          2          3          4          5
     1  C    0.000000
     2  C    1.398770   0.000000
     3  C    2.431457   1.380276   0.000000
     4  C    2.901671   2.475858   1.440634   0.000000
     5  C    2.439775   2.773787   2.414980   1.441397   0.000000
     6  C    1.408033   2.396358   2.777510   2.483526   1.388905
     7  H    1.078812   2.169287   3.411639   3.980480   3.417683
     8  H    2.147025   1.086948   2.130856   3.448248   3.860707
     9  H    3.410543   2.143201   1.084177   2.159976   3.397520
    10  N    4.225930   3.670556   2.400572   1.325404   2.463442
    11  H    3.408056   3.856567   3.407762   2.179167   1.083076
    12  H    4.678769   4.385559   3.244788   1.909933   2.497140
    13  C    2.501597   3.758374   4.247909   3.803637   2.450197
    14  O    3.644707   4.799881   5.058557   4.307659   2.866466
    15  O    2.750017   4.147525   4.988605   4.867478   3.649552
    16  H    3.704700   5.098375   5.875372   5.619259   4.302340
                    6          7          8          9         10
     6  C    0.000000
     7  H    2.171163   0.000000
     8  H    3.384563   2.491779   0.000000
     9  H    3.861687   4.304412   2.454977   0.000000
    10  N    3.719556   5.304668   4.530490   2.607677   0.000000
    11  H    2.131903   4.295308   4.943515   4.308103   2.738934
    12  H    3.877926   5.741313   5.336663   3.599587   1.020182
    13  C    1.470830   2.736044   4.642132   5.332041   4.913573
    14  O    2.407401   3.949411   5.752431   6.123934   5.199793
    15  O    2.384765   2.417946   4.794346   6.047016   6.080164
    16  H    3.172508   3.370976   5.762059   6.946368   6.764604
                   11         12         13         14         15
    11  H    0.000000
    12  H    2.340203   0.000000
    13  C    2.619754   4.836397   0.000000
    14  O    2.540528   4.880045   1.214323   0.000000
    15  O    3.970607   6.115776   1.369740   2.221046   0.000000
    16  H    4.416831   6.682942   1.858522   2.185689   0.968013
                   16
    16  H    0.000000
 Stoichiometry    C7H6NO2(1-)
 Framework group  C1[X(C7H6NO2)]
 Deg. of freedom    42
 Full point group                 C1      NOp   1
 Largest Abelian subgroup         C1      NOp   1
 Largest concise Abelian subgroup C1      NOp   1
                         Standard orientation:                         
 ---------------------------------------------------------------------
 Center     Atomic      Atomic             Coordinates (Angstroms)
 Number     Number       Type             X           Y           Z
 ---------------------------------------------------------------------
      1          6           0        0.201040    1.463363    0.013093
      2          6           0       -1.153303    1.812782   -0.001655
      3          6           0       -2.155103    0.863309   -0.009486
      4          6           0       -1.886445   -0.552038   -0.002904
      5          6           0       -0.482629   -0.878665    0.012554
      6          6           0        0.512480    0.090226    0.020661
      7          1           0        0.979084    2.210657    0.018992
      8          1           0       -1.425047    2.865199   -0.007305
      9          1           0       -3.196286    1.165366   -0.021224
     10          7           0       -2.884917   -1.423636   -0.011190
     11          1           0       -0.191862   -1.921964    0.018502
     12          1           0       -2.489789   -2.364169   -0.004647
     13          6           0        1.912195   -0.361290    0.037152
     14          8           0        2.314222   -1.506108   -0.011287
     15          8           0        2.829101    0.654392   -0.024987
     16          1           0        3.682318    0.197967   -0.052287
 ---------------------------------------------------------------------
 Rotational constants (GHZ):           2.7445042           0.9568037           0.7095547
 Standard basis: def2TZVP (5D, 7F)
 There are   396 symmetry adapted cartesian basis functions of A   symmetry.
 There are   346 symmetry adapted basis functions of A   symmetry.
   346 basis functions,   558 primitive gaussians,   396 cartesian basis functions
    36 alpha electrons       36 beta electrons
       nuclear repulsion energy       476.7680569286 Hartrees.
 NAtoms=   16 NActive=   16 NUniq=   16 SFac= 1.00D+00 NAtFMM=   60 NAOKFM=F Big=F
 Integral buffers will be    131072 words long.
 Raffenetti 2 integral format.
 Two-electron integral symmetry is turned on.
 One-electron integrals computed using PRISM.
   1 Symmetry operations used in ECPInt.
 ECPInt:  NShTT=    9045 NPrTT=   28204 LenC2=    8663 LenP2D=   21015.
 LDataN:  DoStor=T MaxTD1= 6 Len=  172
 NBasis=   346 RedAO= T EigKep=  9.81D-06  NBF=   346
 NBsUse=   346 1.00D-06 EigRej= -1.00D+00 NBFU=   346
 Initial guess from the checkpoint file:  "C6H5NH-.chk"
 B after Tr=     0.000000    0.000000   -0.000000
         Rot=    1.000000    0.000019   -0.000018    0.000528 Ang=   0.06 deg.
 ExpMin= 9.52D-02 ExpMax= 2.70D+04 ExpMxC= 9.22D+02 IAcc=2 IRadAn=         4 AccDes= 0.00D+00
 Harris functional with IExCor=  402 and IRadAn=       4 diagonalized for initial guess.
 HarFok:  IExCor=  402 AccDes= 0.00D+00 IRadAn=         4 IDoV= 1 UseB2=F ITyADJ=14
 ICtDFT=  3500011 ScaDFX=  1.000000  1.000000  1.000000  1.000000
 FoFCou: FMM=F IPFlag=           0 FMFlag=      100000 FMFlg1=           0
         NFxFlg=           0 DoJE=T BraDBF=F KetDBF=T FulRan=T
         wScrn=  0.000000 ICntrl=       500 IOpCl=  0 I1Cent=   200000004 NGrid=           0
         NMat0=    1 NMatS0=      1 NMatT0=    0 NMatD0=    1 NMtDS0=    0 NMtDT0=    0
 Petite list used in FoFCou.
 Requested convergence on RMS density matrix=1.00D-08 within 128 cycles.
 Requested convergence on MAX density matrix=1.00D-06.
 Requested convergence on             energy=1.00D-06.
 No special actions if energy rises.
 Integral accuracy reduced to 1.0D-05 until final iterations.
 Initial convergence to 1.0D-05 achieved.  Increase integral accuracy.
 SCF Done:  E(RB3LYP) =  -475.786858901     A.U. after   13 cycles
            NFock= 13  Conv=0.72D-08     -V/T= 2.0046
   1 Symmetry operations used in ECPInt.
 ECPInt:  NShTT=    9045 NPrTT=   28204 LenC2=    8663 LenP2D=   21015.
 LDataN:  DoStor=T MaxTD1= 7 Len=  274
 Calling FoFJK, ICntrl=      2127 FMM=F ISym2X=0 I1Cent= 0 IOpClX= 0 NMat=1 NMatS=1 NMatT=0.
 ***** Axes restored to original set *****
 -------------------------------------------------------------------
 Center     Atomic                   Forces (Hartrees/Bohr)
 Number     Number              X              Y              Z
 -------------------------------------------------------------------
      1        6           0.000847050   -0.000113083    0.000595034
      2        6          -0.001116612    0.000692572   -0.000203508
      3        6           0.001081918   -0.002650289    0.000045517
      4        6          -0.001278178    0.004220068   -0.000358751
      5        6           0.001483453    0.000190871    0.000520383
      6        6           0.001394134   -0.001304883    0.004220339
      7        1           0.000033795   -0.000191652    0.000042514
      8        1           0.000157062    0.000103800   -0.000065834
      9        1           0.000319647    0.000390216    0.000032865
     10        7           0.000593626   -0.001475694    0.000049900
     11        1          -0.000659585   -0.000017678    0.000035094
     12        1          -0.000707924    0.000683297   -0.000002423
     13        6           0.000961593    0.002068139   -0.015534331
     14        8          -0.003485631    0.001772775    0.006079341
     15        8           0.000347007   -0.004215696    0.004698737
     16        1           0.000028644   -0.000152763   -0.000154878
 -------------------------------------------------------------------
 Cartesian Forces:  Max     0.015534331 RMS     0.002878240

 GradGradGradGradGradGradGradGradGradGradGradGradGradGradGradGradGradGrad
 Berny optimization.
 Using GEDIIS/GDIIS optimizer.
 FormGI is forming the generalized inverse of G from B-inverse, IUseBI=4.
 Internal  Forces:  Max     0.004174204 RMS     0.001424637
 Search for a local minimum.
 Step number   3 out of a maximum of   81
 All quantities printed in internal units (Hartrees-Bohrs-Radians)
 Mixed Optimization -- RFO/linear search
 Update second derivatives using D2CorX and points    1    2    3
 DE= -1.52D-03 DEPred=-2.28D-03 R= 6.70D-01
 TightC=F SS=  1.41D+00  RLast= 1.86D-01 DXNew= 8.4853D-01 5.5683D-01
 Trust test= 6.70D-01 RLast= 1.86D-01 DXMaxT set to 5.57D-01
 ITU=  1  1  0
 Use linear search instead of GDIIS.
     Eigenvalues ---    0.00237   0.00821   0.01295   0.01714   0.02070
     Eigenvalues ---    0.02070   0.02146   0.02286   0.02329   0.02376
     Eigenvalues ---    0.02469   0.02483   0.02516   0.15556   0.16000
     Eigenvalues ---    0.16000   0.16000   0.16016   0.16849   0.19643
     Eigenvalues ---    0.22118   0.23745   0.24491   0.24961   0.25039
     Eigenvalues ---    0.25612   0.29167   0.36785   0.37230   0.37235
     Eigenvalues ---    0.37312   0.40215   0.42848   0.43098   0.44467
     Eigenvalues ---    0.45558   0.47493   0.51005   0.54476   0.55537
     Eigenvalues ---    0.57630   0.81423
 RFO step:  Lambda=-5.80415083D-03 EMin= 2.36836598D-03
 Quartic linear search produced a step of -0.22290.
 Iteration  1 RMS(Cart)=  0.07089226 RMS(Int)=  0.01920621
 Iteration  2 RMS(Cart)=  0.02438603 RMS(Int)=  0.00808788
 Iteration  3 RMS(Cart)=  0.00089439 RMS(Int)=  0.00805727
 Iteration  4 RMS(Cart)=  0.00001549 RMS(Int)=  0.00805726
 Iteration  5 RMS(Cart)=  0.00000037 RMS(Int)=  0.00805726
 Variable       Old X    -DE/DX   Delta X   Delta X   Delta X     New X
                                 (Linear)    (Quad)   (Total)
    R1        2.64329  -0.00022   0.00073  -0.00480  -0.00416   2.63913
    R2        2.66080   0.00018  -0.00091   0.00617   0.00517   2.66597
    R3        2.03866   0.00019   0.00011   0.00156   0.00166   2.04032
    R4        2.60834  -0.00033  -0.00055   0.00685   0.00630   2.61465
    R5        2.05403   0.00009  -0.00208   0.01395   0.01187   2.06590
    R6        2.72240   0.00189  -0.00580   0.04048   0.03476   2.75717
    R7        2.04880   0.00048  -0.00176   0.01268   0.01092   2.05972
    R8        2.72385   0.00054  -0.00423   0.03019   0.02605   2.74989
    R9        2.50465  -0.00080   0.00250  -0.01622  -0.01372   2.49093
   R10        2.62465   0.00165  -0.00331   0.02585   0.02254   2.64719
   R11        2.04672   0.00058  -0.00204   0.01416   0.01212   2.05883
   R12        2.77947   0.00207   0.00832  -0.04904  -0.04072   2.73875
   R13        1.92786   0.00090  -0.00434   0.02750   0.02316   1.95103
   R14        2.29474   0.00366   0.00424  -0.02597  -0.02173   2.27300
   R15        2.58843   0.00417   0.00589  -0.03261  -0.02671   2.56172
   R16        1.82928   0.00003  -0.00164   0.00992   0.00828   1.83756
    A1        2.04635  -0.00047   0.00210  -0.01783  -0.01593   2.03043
    A2        2.12388   0.00021  -0.00152   0.01167   0.01024   2.13413
    A3        2.11295   0.00026  -0.00058   0.00616   0.00568   2.11863
    A4        2.13054   0.00090  -0.00215   0.01722   0.01498   2.14551
    A5        2.07600  -0.00028  -0.00045  -0.00019  -0.00059   2.07541
    A6        2.07664  -0.00062   0.00260  -0.01703  -0.01438   2.06226
    A7        2.14175   0.00047  -0.00388   0.02588   0.02209   2.16384
    A8        2.10067  -0.00006   0.00000   0.00065   0.00061   2.10129
    A9        2.04076  -0.00040   0.00387  -0.02653  -0.02270   2.01806
   A10        1.98701  -0.00162   0.00870  -0.05971  -0.05083   1.93618
   A11        2.10082   0.00053  -0.00237   0.01421   0.01175   2.11256
   A12        2.19536   0.00108  -0.00632   0.04550   0.03908   2.23444
   A13        2.14097   0.00103  -0.00540   0.03619   0.03088   2.17185
   A14        2.07123  -0.00019   0.00133  -0.00959  -0.00831   2.06292
   A15        2.07099  -0.00084   0.00407  -0.02660  -0.02258   2.04841
   A16        2.11975  -0.00031   0.00063  -0.00174  -0.00120   2.11855
   A17        2.10589   0.00119  -0.00449   0.02785   0.02341   2.12930
   A18        2.05754  -0.00088   0.00386  -0.02611  -0.02221   2.03533
   A19        1.89068   0.00078   0.01314  -0.08226  -0.06912   1.82156
   A20        2.21934  -0.00004  -0.00895   0.07417   0.02580   2.24514
   A21        1.99204   0.00039   0.00792  -0.03169  -0.06083   1.93121
   A22        2.06649   0.00039   0.00221   0.00510  -0.03006   2.03643
   A23        1.81488   0.00029   0.00304  -0.02348  -0.02044   1.79444
    D1       -0.00070   0.00012   0.00025   0.00304   0.00331   0.00260
    D2        3.14109   0.00011   0.00018   0.00281   0.00299  -3.13911
    D3        3.14142  -0.00001   0.00004  -0.00032  -0.00023   3.14119
    D4        0.00002  -0.00002  -0.00003  -0.00054  -0.00055  -0.00052
    D5        0.00104  -0.00023  -0.00038  -0.00558  -0.00590  -0.00486
    D6       -3.14084  -0.00016  -0.00030  -0.00314  -0.00336   3.13899
    D7       -3.14108  -0.00009  -0.00017  -0.00225  -0.00240   3.13971
    D8        0.00023  -0.00002  -0.00009   0.00019   0.00015   0.00038
    D9        0.00019  -0.00001  -0.00006  -0.00021  -0.00030  -0.00011
   D10       -3.14126  -0.00004  -0.00011  -0.00070  -0.00083   3.14110
   D11        3.14158  -0.00000   0.00000   0.00001   0.00002  -3.14158
   D12        0.00014  -0.00003  -0.00005  -0.00047  -0.00052  -0.00038
   D13        0.00003  -0.00000  -0.00001  -0.00021  -0.00025  -0.00022
   D14       -3.14135  -0.00004  -0.00008  -0.00093  -0.00100   3.14084
   D15        3.14148   0.00002   0.00004   0.00026   0.00027  -3.14144
   D16        0.00010  -0.00002  -0.00003  -0.00046  -0.00048  -0.00038
   D17        0.00031  -0.00010  -0.00012  -0.00236  -0.00246  -0.00215
   D18        3.14145   0.00002   0.00006   0.00056   0.00067  -3.14106
   D19       -3.14151  -0.00006  -0.00004  -0.00160  -0.00165   3.14002
   D20       -0.00037   0.00006   0.00014   0.00132   0.00149   0.00111
   D21        3.14146   0.00002   0.00004   0.00030   0.00034  -3.14139
   D22        0.00011  -0.00003  -0.00005  -0.00049  -0.00054  -0.00043
   D23       -0.00087   0.00022   0.00032   0.00542   0.00578   0.00491
   D24        3.14099   0.00015   0.00025   0.00303   0.00336  -3.13883
   D25        3.14117   0.00010   0.00015   0.00249   0.00266  -3.13935
   D26       -0.00015   0.00003   0.00007   0.00011   0.00024   0.00010
   D27       -3.08340  -0.00405  -0.01302  -0.25728  -0.26880   2.93098
   D28       -0.05517   0.00390   0.01228   0.24777   0.25855   0.20339
   D29        0.05792  -0.00398  -0.01295  -0.25492  -0.26637  -0.20845
   D30        3.08616   0.00397   0.01235   0.25013   0.26099  -2.93604
   D31       -3.09116  -0.00345  -0.01118  -0.22635  -0.22580   2.96623
   D32       -0.05222   0.00371   0.01173   0.23621   0.23621   0.18399
         Item               Value     Threshold  Converged?
 Maximum Force            0.004174     0.000450     NO 
 RMS     Force            0.001425     0.000300     NO 
 Maximum Displacement     0.426867     0.001800     NO 
 RMS     Displacement     0.092555     0.001200     NO 
 Predicted change in Energy=-4.192120D-03
 GradGradGradGradGradGradGradGradGradGradGradGradGradGradGradGradGradGrad

                          Input orientation:                          
 ---------------------------------------------------------------------
 Center     Atomic      Atomic             Coordinates (Angstroms)
 Number     Number       Type             X           Y           Z
 ---------------------------------------------------------------------
      1          6           0        0.046067   -1.886800   -0.061153
      2          6           0        1.206711   -1.112125   -0.004684
      3          6           0        1.186899    0.270888    0.030853
      4          6           0       -0.033953    1.069629    0.013506
      5          6           0       -1.212020    0.217470   -0.045959
      6          6           0       -1.176035   -1.182380   -0.084166
      7          1           0        0.073824   -2.965779   -0.088862
      8          1           0        2.177364   -1.614800    0.012579
      9          1           0        2.118584    0.834807    0.075135
     10          7           0        0.014688    2.386360    0.050304
     11          1           0       -2.191610    0.693952   -0.064719
     12          1           0       -0.974828    2.680030    0.026981
     13          6           0       -2.453931   -1.863303   -0.145415
     14          8           0       -3.555099   -1.410604    0.025677
     15          8           0       -2.299610   -3.190847    0.081460
     16          1           0       -3.216080   -3.501004    0.178604
 ---------------------------------------------------------------------
                    Distance matrix (angstroms):
                    1          2          3          4          5
     1  C    0.000000
     2  C    1.396569   0.000000
     3  C    2.442454   1.383612   0.000000
     4  C    2.958454   2.509906   1.459030   0.000000
     5  C    2.451727   2.760396   2.400743   1.455181   0.000000
     6  C    1.410770   2.385107   2.776451   2.526942   1.400833
     7  H    1.079692   2.174064   3.424804   4.038145   3.433411
     8  H    2.149848   1.093228   2.130065   3.477943   3.853384
     9  H    3.423602   2.151378   1.089955   2.166185   3.389498
    10  N    4.274729   3.696395   2.418611   1.318143   2.493625
    11  H    3.415771   3.848909   3.406235   2.191514   1.089487
    12  H    4.680377   4.374992   3.236826   1.865159   2.475032
    13  C    2.501528   3.739569   4.223919   3.805737   2.425252
    14  O    3.633552   4.771253   5.031302   4.306991   2.854081
    15  O    2.687578   4.077106   4.913443   4.825916   3.579903
    16  H    3.647567   5.030052   5.799589   5.571703   4.230099
                    6          7          8          9         10
     6  C    0.000000
     7  H    2.177770   0.000000
     8  H    3.382549   2.502062   0.000000
     9  H    3.866386   4.318842   2.451111   0.000000
    10  N    3.764547   5.354275   4.548392   2.614252   0.000000
    11  H    2.133633   4.304231   4.942089   4.314762   2.783025
    12  H    3.869244   5.743540   5.327484   3.602272   1.032438
    13  C    1.449284   2.758297   4.640648   5.313788   4.918539
    14  O    2.392508   3.949782   5.736114   6.102049   5.211614
    15  O    2.307334   2.390158   4.746785   5.977154   6.038392
    16  H    3.099492   3.343871   5.716168   6.875217   6.716799
                   11         12         13         14         15
    11  H    0.000000
    12  H    2.330981   0.000000
    13  C    2.571940   4.781144   0.000000
    14  O    2.509269   4.836433   1.202822   0.000000
    15  O    3.889048   6.018738   1.355603   2.179135   0.000000
    16  H    4.325090   6.576579   1.835191   2.123227   0.972395
                   16
    16  H    0.000000
 Stoichiometry    C7H6NO2(1-)
 Framework group  C1[X(C7H6NO2)]
 Deg. of freedom    42
 Full point group                 C1      NOp   1
 Largest Abelian subgroup         C1      NOp   1
 Largest concise Abelian subgroup C1      NOp   1
                         Standard orientation:                         
 ---------------------------------------------------------------------
[...]
   zy         0.283330D-01      0.419851D-02      0.467148D-02
   zz         0.561647D+02      0.832275D+01      0.926031D+01

 ----------------------------------------------------------------------

 Dipole orientation:
     6          1.19975994         -0.43073787          3.28277350
     6          2.70164395         -0.97027511          1.17636430
     6          1.84065358         -0.66142822         -1.26459273
     6         -0.66887236          0.23954573         -1.84611950
     6         -2.16508736          0.77699200          0.36732363
     6         -1.26548434          0.45431068          2.81614632
     1          1.88977577         -0.67830601          5.18560091
     1          4.61550386         -1.65739779          1.46977983
     1          3.05783322         -1.09868586         -2.85560449
     7         -1.40399308          0.50319143         -4.22174858
     1         -4.07903216          1.46412925          0.11858769
     1         -3.22037648          1.15533791         -4.23399045
     6         -2.98624825          1.07236005          4.91417212
     8         -5.14364064          1.84766178          4.76636398
     8         -1.95992519          0.70329858          7.27344516
     1         -3.30169670          1.18508404          8.41960122

 Electric dipole moment (dipole orientation):
 (Debye = 10**-18 statcoulomb cm , SI units = C m)
                  (au)            (Debye)         (10**-30 SI)
   Tot        0.259251D+01      0.658951D+01      0.219802D+02
   x          0.000000D+00      0.000000D+00      0.000000D+00
   y          0.000000D+00      0.000000D+00      0.000000D+00
   z          0.259251D+01      0.658951D+01      0.219802D+02

 Dipole polarizability, Alpha (dipole orientation).
 (esu units = cm**3 , SI units = C**2 m**2 J**-1)
 Alpha(0;0):
               (au)            (10**-24 esu)      (10**-40 SI)
   iso        0.110239D+03      0.163358D+02      0.181760D+02
   aniso      0.841159D+02      0.124647D+02      0.138688D+02
   xx         0.116701D+03      0.172932D+02      0.192413D+02
   yx        -0.217370D+02     -0.322110D+01     -0.358395D+01
   yy         0.639699D+02      0.947936D+01      0.105472D+02
   zx        -0.144128D+01     -0.213576D+00     -0.237635D+00
   zy         0.526524D+00      0.780228D-01      0.868120D-01
   zz         0.150047D+03      0.222347D+02      0.247395D+02

 ----------------------------------------------------------------------
 1\1\GINC-N12\Freq\RB3LYP\def2TZVP\C7H6N1O2(1-)\UNKNOWN\20-Jan-2025\0\\
 #N Geom=AllCheck Guess=TCheck SCRF=Check GenChk RB3LYP/def2TZVP Freq\\
 opt meta\\-1,1\C,0.0494123259,-1.862887104,-0.0008986048\C,1.220254453
 1,-1.0981859225,-0.0015297789\C,1.2000251869,0.2810797058,-0.001008365
 \C,-0.0246013623,1.0464829732,0.0002073088\C,-1.2115285992,0.227379847
 4,0.0007967972\C,-1.1722684344,-1.1631218726,0.0002709149\H,0.07516118
 9,-2.9416555263,-0.0013365957\H,2.1809768133,-1.6071429897,-0.00244382
 91\H,2.12820442,0.8429816873,-0.001531029\N,0.0101433801,2.3693427427,
 0.0006583001\H,-2.180264232,0.7140927965,0.0016982292\H,-0.9491473039,
 2.7197440674,0.0015076884\C,-2.4574632879,-1.8821613553,0.0009685173\O
 ,-3.5731974165,-1.3995384206,0.0023506165\O,-2.3350014602,-3.252122981
 1,-0.0000470168\H,-3.2497331218,-3.5687944683,0.0004787667\\Version=ES
 64L-G16RevA.03\State=1-A\HF=-475.7875638\RMSD=4.491e-09\RMSF=4.308e-05
 \ZeroPoint=0.1171554\Thermal=0.1254683\Dipole=-0.8740248,-2.4407387,-0
 .000519\DipoleDeriv=-0.4348176,0.1717296,0.0001855,-0.0094484,-0.53116
 49,-0.0000684,0.0000526,-0.0001152,-0.2639003,0.3296804,0.0564809,-0.0
 003733,0.1941007,0.4277018,0.0000693,-0.0002724,0.0001109,-0.1829205,0
 .0182776,0.5746062,0.0000009,-0.1425115,-0.4867072,0.000016,-0.000287,
 -0.0005224,-0.2445966,-0.2926286,0.0258777,0.0002552,0.05316,1.8103634
 ,0.0006181,0.0002862,0.0006199,0.0275017,0.0336985,-0.5939139,-0.00038
 91,0.4625318,-0.4799197,-0.0004462,0.0000021,0.0003685,-0.1921797,-0.3
 995647,-0.556463,0.00008,-0.8004604,0.0948637,0.0006144,-0.0000537,0.0
 004259,-0.0660316,0.0577716,0.0132765,0.0000879,0.0207,-0.1168279,-0.0
 001167,0.0001045,-0.0001523,0.160724,-0.1889856,0.1286549,0.000281,0.1
 341124,-0.0095425,-0.0001466,0.0002765,-0.0001274,0.1184434,-0.1305018
 ,-0.0845665,0.0001631,-0.1220475,-0.0135059,0.0000466,0.0001546,0.0000
 151,0.1202218,-0.045187,-0.2149282,-0.0005109,-0.0837816,-1.8945305,-0
 .0004035,-0.0004708,-0.0002844,-0.618021,-0.0466021,0.0737219,0.000148
 8,0.0848698,-0.0078655,-0.0001104,0.000157,-0.0001184,0.1234816,-0.183
 0859,0.2020965,0.0003616,0.0131111,0.1533782,-0.0000261,0.0002965,-0.0
 001711,0.1989419,2.119053,0.4184005,-0.0015119,0.3085757,1.8358575,0.0
 007909,-0.0014629,0.0006585,0.2561159,-1.5617662,-0.0723279,0.0010997,
 0.0794547,-0.6789995,-0.0002871,0.0011275,-0.000151,-0.381355,-0.40846
 61,-0.1063023,0.0000048,-0.2564128,-1.4364866,-0.0005217,-0.0001113,-0
 .0006148,-0.3560845,0.1331247,-0.0363429,0.0001167,0.064046,0.3333856,
 -0.0000288,0.0002005,0.0000583,0.2996589\Polar=128.3829073,9.2924423,1
 46.1702999,-0.0524203,0.028333,56.1647146\Quadrupole=0.007013,-7.66329
 78,7.6562847,-6.4761796,0.0055222,-0.0006113\PG=C01 [X(C7H6N1O2)]\NIma
 g=0\\0.61544341,0.00640873,0.73091533,-0.00040224,0.00023956,0.0790496
 5,-0.25532933,-0.11416244,0.00012160,0.68518186,-0.06202580,-0.1701246
 7,-0.00000112,-0.02528255,0.68254152,0.00014266,0.00004276,-0.04180797
 ,-0.00044710,0.00022459,0.11255733,0.01701340,-0.02627065,-0.00002033,
 -0.12382374,-0.01747550,0.00005576,0.62603032,-0.05967497,-0.03860942,
 0.00003166,0.02994049,-0.36732861,-0.00014109,0.05010436,0.72101376,-0
 .00003088,0.00000490,0.00453484,0.00007231,-0.00010497,-0.04356394,-0.
 00038078,0.00018139,0.11073938,-0.04813365,0.00009954,0.00003360,0.031
 29699,0.04892229,-0.00000654,-0.22262951,0.03157355,0.00012998,0.57295
 927,0.00002720,0.00808039,0.00000357,0.03083559,-0.02275130,-0.0000315
 3,0.05826682,-0.13385699,-0.00006808,-0.01575621,0.73438236,0.00003416
 ,0.00000454,-0.00323542,-0.00001370,-0.00004502,-0.00161345,0.00013869
 ,-0.00004720,-0.06895632,-0.00030532,0.00021396,0.17569103,0.00655585,
 0.02902760,0.00001501,-0.00548799,0.00157228,0.00000250,-0.03143924,-0
 .00385509,0.00002403,-0.21349677,-0.06007782,0.00008626,0.64215852,0.0
 5454033,-0.03345526,-0.00005521,-0.02240829,-0.02646259,0.00000803,-0.
 00059256,0.03821649,0.00001327,-0.03135142,-0.14342073,-0.00000317,-0.
 04622176,0.68365931,0.00002185,-0.00003820,0.01117530,-0.00000558,-0.0
 0000897,-0.00223008,0.00002597,0.00001572,0.00229000,0.00009773,0.0000
 1847,-0.06745824,-0.00041796,0.00024040,0.10913972,-0.23995299,0.10477
 925,0.00017864,-0.06213504,-0.02546685,0.00004169,-0.00927890,0.023770
 01,0.00001489,0.02734122,-0.02765890,-0.00003057,-0.11430594,-0.001706
 61,0.00005081,0.62855016,0.06740957,-0.16024878,-0.00009599,0.00941705
 ,0.03155903,0.00000160,0.00167625,-0.02276872,-0.00000930,-0.04509355,
 -0.02341846,0.00002327,0.02889303,-0.33443350,-0.00012121,-0.03668530,
 0.67431732,0.00016472,-0.00012307,-0.04818593,0.00005436,0.00003109,0.
 00335825,0.00000715,-0.00002726,-0.00089702,-0.00003968,0.00001348,-0.
 00079540,0.00006143,-0.00010120,-0.05170123,-0.00039443,0.00024208,0.1
 3370828,-0.05656750,0.00668511,0.00003621,0.00512922,-0.02765863,-0.00
 001830,-0.00437509,-0.00108461,0.00000781,-0.00088866,-0.00017785,-0.0
 0000060,-0.00515372,0.00089603,0.00000716,0.00387322,0.02740830,0.0000
 0422,0.05673446,0.00975717,-0.34097563,-0.00013435,0.00358301,-0.01190
 429,-0.00000505,-0.00318723,0.00083952,0.00000017,-0.00016346,0.000517
 63,0.00000098,0.00290845,0.00123309,-0.00000344,-0.00187398,-0.0121385
 4,-0.00000109,-0.00687518,0.36395531,0.00003676,-0.00013435,-0.0124510
 6,-0.00000590,0.00001984,-0.00508021,0.00000726,-0.00000162,0.00638025
 ,-0.00000054,0.00000123,-0.00166629,0.00000765,-0.00000208,0.00411374,
 -0.00000719,-0.00002149,-0.00510588,-0.00003379,0.00014007,0.01578162,
 -0.02008868,0.01623360,0.00002024,-0.26164496,0.10687478,0.00021476,0.
 00027821,-0.00054877,0.00000027,0.00227923,-0.00083618,0.00000497,0.00
 084526,-0.00049566,-0.00000123,-0.00334825,-0.00507134,0.00000558,0.00
 113799,-0.00061360,-0.00000312,0.28096984,-0.01482479,0.01132005,0.000
 01534,0.10659081,-0.11487238,-0.00011084,0.03140832,-0.01166387,-0.000
 02857,-0.00300329,-0.00420426,-0.00000249,-0.00022963,-0.00063426,0.00
 000007,-0.00282611,-0.00108595,-0.00000061,0.00075928,0.00089157,0.000
 00077,-0.11797357,0.11993412,0.00000969,-0.00000823,-0.00105795,0.0002
 1383,-0.00011071,-0.03056211,0.00001220,-0.00000472,0.00087499,0.00000
 395,-0.00000430,0.00914355,-0.00000120,0.00000033,-0.00051886,0.000006
 75,0.00000148,0.00662195,-0.00000262,0.00000176,-0.00258989,-0.0002386
 4,0.00012430,0.02352735,0.00256830,0.00045606,0.00000465,0.00282711,0.
 00263246,-0.00000154,-0.25603892,-0.11753151,0.00013300,-0.02045805,-0
 .01970151,0.00001395,-0.00387903,0.00422624,0.00000789,-0.00029171,0.0
 0130546,0.00000064,-0.00002410,0.00014451,0.00000070,0.00131193,-0.000
 77260,-0.00000470,0.27188445,0.00234940,-0.00473389,-0.00000656,-0.028
 86364,-0.01264647,0.00001793,-0.11825101,-0.12577521,0.00005851,0.0127
 8298,0.00978189,-0.00000895,0.00236578,-0.00128681,-0.00000381,0.00065
 361,-0.00025318,-0.00000059,-0.00124375,-0.00071633,0.00000044,0.00048
 041,0.00102130,0.00000162,0.13012899,0.13267832,0.00000489,-0.00000511
 ,0.00806007,-0.00001289,-0.00000667,-0.00014357,0.00013333,0.00005814,
 -0.03147937,0.00002476,0.00001659,0.00672118,0.00000747,-0.00000507,0.
 00433117,0.00000020,-0.00000107,-0.00004556,0.00000027,-0.00000067,0.0
 0083678,-0.00000423,0.00000251,-0.00439041,-0.00014815,-0.00006171,0.0
 2179675,0.01343348,-0.00029660,-0.00001120,-0.01182793,-0.00886560,0.0
 0000650,0.00331929,0.04822384,0.00002134,-0.10501495,0.02579049,0.0000
 4338,0.00355623,-0.04376398,-0.00000138,-0.01175446,0.00778330,0.00001
 652,0.00047306,-0.00002304,-0.00000042,-0.00037815,0.00129543,0.000000
 81,0.00280540,-0.00035182,-0.00000402,0.45982377,-0.00213432,-0.009688
 41,-0.00000039,0.00159642,0.00941467,0.00000171,0.02869865,-0.04850732
 ,-0.00004257,-0.03252018,-0.40206152,-0.00009932,-0.02382732,-0.050084
 26,-0.00000932,-0.00189803,0.00605025,0.00000163,0.00007240,-0.0000895
 5,-0.00000039,0.00081792,-0.00067916,-0.00000085,-0.00026745,0.0014418
 1,0.00000140,-0.10516775,0.56581653,-0.00001200,-0.00000302,-0.0011934
 5,0.00001054,0.00000969,0.00117448,0.00001411,-0.00005742,0.00835706,0
 .00002302,-0.00014295,-0.05885893,0.00000557,0.00000597,0.02229196,0.0
 0001220,-0.00000471,0.00533874,-0.00000037,0.00000001,-0.00008172,0.00
 000059,-0.00000124,0.00003675,-0.00000414,0.00000172,-0.00247899,-0.00
 034871,0.00026707,0.04753458,0.00265156,-0.00071674,0.00000125,-0.0003
 1166,-0.00129036,0.00000003,-0.00295207,-0.00405931,0.00000384,-0.0186
 4099,0.01673829,0.00002421,-0.27342726,0.11032085,0.00022169,0.0005021
 7,0.00158196,0.00000115,0.00003353,-0.00008388,0.00000174,-0.00007031,
 0.00007785,-0.00000057,-0.00134070,0.00074508,0.00000009,0.00192210,0.
 00008151,-0.00000348,0.29225926,-0.00216388,-0.00512212,-0.00000191,-0
 .00064264,-0.00064221,0.00000004,-0.00307967,-0.00108422,0.00000059,-0
 .01454813,0.00742596,0.00001155,0.10726598,-0.11024618,-0.00010978,0.0
 2970142,-0.01146854,-0.00002696,0.00157460,-0.00076374,-0.00000216,0.0
 0011254,0.00004019,0.00000025,-0.00079703,0.00053042,0.00000135,-0.000
 69597,0.00329990,0.00000270,-0.11946268,0.11699342,0.00000148,-0.00000
 276,0.00461839,0.00000009,0.00000023,0.00039805,0.00000392,0.00000122,
 0.00402795,0.00001290,-0.00001177,0.00549746,0.00022219,-0.00011185,-0
 .02947116,0.00000890,-0.00000594,0.00116432,0.00000212,-0.00000105,0.0
 0229949,-0.00000059,0.00000026,-0.00087740,-0.00000055,0.00000025,-0.0
 0155241,-0.00000396,0.00000223,-0.00279935,-0.00024633,0.00012492,0.02
 051059,0.00086716,-0.00048598,-0.00000077,-0.00110120,-0.00004915,0.00
 000266,0.00282173,0.00283981,0.00000521,-0.01031858,-0.00844142,0.0000
 0328,0.00193615,-0.00549893,-0.00000693,0.00042993,0.00111566,-0.00000
 085,0.00008379,0.00009804,-0.00000011,-0.00004549,0.00037110,-0.000000
 37,0.00075402,-0.00063929,-0.00000142,-0.35533303,0.13461797,0.0003024
 7,0.00097485,0.00110071,-0.00000003,0.35911747,-0.00115170,0.00014463,
 0.00000097,0.00266524,0.00098300,-0.00000258,-0.00197491,-0.00739136,-
 0.00000413,0.04821605,-0.02638537,-0.00004514,0.00210755,0.00269152,0.
 00000104,0.00037951,-0.00035277,-0.00000012,-0.00013373,0.00005365,0.0
 0000015,0.00006170,-0.00058637,-0.00000002,0.00025235,-0.00006841,0.00
 000004,0.07635803,-0.07367729,-0.00007741,-0.00180530,-0.00024657,0.00
 000114,-0.12515803,0.10466204,-0.00000103,0.00000045,-0.00002238,0.000
 00370,-0.00000048,0.00248317,0.00000366,-0.00000797,0.00839334,0.00002
 350,-0.00000267,-0.00192652,-0.00000411,0.00000695,-0.00461896,-0.0000
 0114,-0.00000070,-0.00127483,-0.00000019,-0.00000001,-0.00008521,-0.00
 000047,-0.00000024,-0.00071165,-0.00000113,0.00000073,-0.00076983,0.00
 028141,-0.00012118,-0.01863369,-0.00000109,-0.00000106,0.00043768,-0.0
 0030338,0.00012615,0.01663897,-0.03833064,-0.01003655,0.00002562,-0.00
 060146,0.01052161,0.00000816,0.00140793,0.00039367,-0.00000125,0.00500
 987,-0.00165389,0.00000332,0.00093514,-0.02806168,-0.00001413,-0.16377
 268,-0.03421138,0.00005096,0.00151843,-0.00102361,-0.00000397,0.000145
 71,-0.00075200,0.00000039,0.00014873,0.00028461,-0.00000075,0.00061992
 ,0.00517170,0.00000037,-0.00197972,0.00484246,0.00000073,-0.00096243,0
 .00009687,0.00000093,0.89359048,0.00300756,0.01699858,0.00000864,0.008
 46435,0.00102207,-0.00000984,0.00144685,-0.00239911,-0.00000114,0.0013
 4493,-0.00688598,-0.00000681,-0.03096849,-0.02655794,0.00001330,-0.053
 10696,-0.11831522,0.00002456,0.00308467,-0.00298676,-0.00000260,0.0019
 1573,0.00054574,-0.00000171,0.00046226,-0.00016574,0.00000007,0.000435
 59,0.00077990,0.00000002,-0.00050630,-0.00137096,0.00000157,-0.0001548
 8,-0.00036860,0.00000002,-0.08660045,0.55903640,0.00002735,0.00001432,
 -0.00449540,0.00000817,-0.00000997,0.00686632,-0.00000078,-0.00000019,
 -0.00091203,0.00000499,-0.00000575,0.00969610,-0.00001174,0.00001380,-
 0.00082011,0.00003996,0.00001092,-0.07651326,-0.00000149,0.00000024,-0
 .00284415,0.00000144,0.00000031,0.00102901,-0.00000081,0.00000005,-0.0
 0118549,-0.00000165,-0.00000292,-0.00106371,-0.00000172,-0.00000366,-0
 .00433139,0.00000077,-0.00000036,0.00018094,-0.00068794,0.00030792,0.2
 1178095,0.00460330,-0.00982741,-0.00000473,-0.00404719,-0.00254374,0.0
 0000021,-0.00039605,0.00117536,0.00000068,0.00027099,0.00317591,-0.000
 00118,-0.00203883,0.01016133,0.00000776,-0.06188658,0.00745717,0.00008
 140,0.00038142,0.00054126,0.00000103,-0.00121636,-0.00024571,0.0000004
 3,-0.00024165,-0.00025682,0.00000048,-0.00120844,-0.00346781,0.0000001
 9,-0.00003230,-0.00241116,-0.00000047,0.00058267,0.00003937,-0.0000005
 5,-0.57679017,0.18365377,0.00059215,0.65559860,-0.00413761,-0.00235995
 ,0.00000088,-0.00081239,0.00262027,0.00000266,-0.00021572,-0.00060032,
 -0.00000032,0.00059233,0.00205766,0.00000083,-0.00248758,-0.00477107,0
 .00000048,-0.00217019,0.01772829,0.00000089,-0.00095180,0.00083132,0.0
 0000045,-0.00037415,-0.00010569,0.00000037,-0.00028307,0.00013959,0.00
 000022,-0.00031094,-0.00023593,0.00000002,-0.00244319,0.00182881,0.000
 00275,-0.00004291,0.00026860,0.00000017,0.18933095,-0.19282198,-0.0002
 5483,-0.25719801,0.23509826,-0.00000288,0.00000750,0.00383251,0.000002
 46,0.00000326,-0.00145146,0.00000015,-0.00000142,0.00018427,-0.0000010
 2,-0.00000145,-0.00112126,0.00000062,-0.00001194,0.00098015,0.00007340
 ,-0.00000953,0.01972820,-0.00000067,-0.00000018,0.00038871,0.00000060,
 0.00000044,-0.00049897,0.00000030,0.00000022,0.00024919,0.00000134,0.0
 0000287,0.00032242,-0.00000116,0.00000292,-0.00008907,-0.00000059,0.00
 000011,-0.00011063,0.00059905,-0.00025010,-0.07918928,-0.00076013,0.00
 037608,0.03382582,-0.00481156,-0.00226135,0.00000241,0.00181974,0.0001
 2462,-0.00000152,0.00008905,-0.00130367,-0.00000050,-0.00006262,-0.000
 31243,0.00000021,-0.00636905,-0.00003166,0.00000569,0.00369537,-0.0342
 5621,-0.00001543,-0.00251054,-0.00291726,0.00000021,-0.00015395,0.0001
 2671,0.00000007,-0.00002834,-0.00017222,-0.00000004,-0.00027381,-0.001
 74763,-0.00000055,0.00036589,-0.00074857,-0.00000052,0.00020608,0.0000
 1609,-0.00000010,-0.12106881,-0.02068920,0.00003490,-0.00901857,0.0753
 2833,0.00008579,0.58221119,0.00146693,-0.00236509,-0.00000486,-0.00081
 770,-0.00169728,0.00000167,-0.00066095,-0.00023823,0.00000032,-0.00164
 033,0.00168461,0.00000333,-0.00461762,0.00578926,0.00000477,-0.0106400
 6,-0.03911983,-0.00002313,-0.00216871,0.00079529,0.00000121,-0.0006453
 4,0.00010273,0.00000050,-0.00029114,0.00000525,-0.00000005,-0.00023038
 ,-0.00198937,-0.00000070,0.00076234,0.00102841,-0.00000103,0.00033140,
 0.00026507,-0.00000013,0.01239032,-0.19678197,-0.00009748,0.06423164,-
 0.06845675,-0.00012480,0.09064712,0.38481145,0.00000484,0.00000032,0.0
 0145248,-0.00000193,-0.00000056,-0.00074818,-0.00000039,0.00000046,-0.
 00002055,-0.00000136,0.00000168,-0.00067403,0.00000285,0.00000229,0.00
 167200,0.00000144,-0.00000247,0.01143995,0.00000062,0.00000205,0.00050
 724,-0.00000024,0.00000005,-0.00003333,-0.00000006,0.00000009,0.000115
 76,0.00000020,-0.00000023,0.00008725,0.00000023,0.00000135,0.00003940,
 0.00000003,0.00000018,-0.00000612,0.00005630,-0.00007403,-0.06329478,0
 .00007973,-0.00013585,0.02924005,-0.00038988,0.00017150,0.03363425,0.0
 0007791,0.00036784,0.00000004,0.00005559,0.00001014,0.00000006,-0.0000
 2641,0.00003684,0.00000006,0.00048620,-0.00021808,-0.00000106,-0.00038
 931,-0.00001223,0.00000066,0.00233447,0.00127004,0.00000226,0.00015450
 ,-0.00027119,-0.00000031,-0.00002202,-0.00000180,-0.00000002,0.0000025
 6,-0.00001231,0.,-0.00016248,-0.00002609,0.00000021,0.00004563,-0.0000
 4798,0.00000013,-0.00001313,0.00003093,0.,0.00012972,-0.01178943,-0.00
 000360,-0.00456083,0.00617598,0.00000273,-0.44409007,-0.14811751,0.000
 24760,0.44597767,0.00114618,0.00022425,-0.00000021,-0.00010330,0.00028
 924,-0.00000005,0.00010694,0.00015362,-0.00000007,0.00054489,-0.000945
 89,-0.00000035,-0.00185534,-0.00023705,0.00000048,0.00474919,-0.006051
 39,-0.00000969,-0.00018612,0.00045746,0.00000055,0.00006194,-0.0000237
 5,-0.00000006,0.00003600,0.00004746,0.00000003,-0.00018061,0.00020975,
 0.00000024,0.00005989,-0.00020257,-0.00000019,-0.00000410,0.00000823,-
 0.00000002,-0.06069262,-0.02972844,0.00002761,0.00551485,0.00877890,0.
 00000601,-0.10180267,-0.08383353,0.00003317,0.15260487,0.11085373,0.00
 000063,0.00000040,-0.00027367,0.00000004,-0.00000023,0.00036336,0.0000
 0007,0.00000030,0.00004714,0.00000004,-0.00000050,-0.00044344,-0.00000
 057,-0.00000050,0.00082458,0.00000444,-0.00000693,0.00315940,-0.000000
 38,0.00000058,-0.00040342,0.00000007,-0.00000003,0.00000698,-0.0000000
 4,0.00000006,-0.00006528,-0.00000014,0.00000026,-0.00003341,0.00000012
 ,-0.00000014,0.00012744,0.,0.,0.00002572,-0.00003781,-0.00000987,0.005
 09628,0.00000302,0.00000520,-0.00629065,0.00027927,0.00006886,-0.01341
 138,-0.00024878,-0.00005745,0.01127035\\0.00005385,0.00001937,0.000003
 63,-0.00002485,-0.00003599,-0.00000268,-0.00004334,0.00002385,0.000000
 73,0.00007627,0.00003494,0.00000223,-0.00004956,-0.00009224,-0.0000028
 3,-0.00007262,0.00005123,0.00000254,-0.00000819,0.00001442,-0.00000053
 ,0.00000580,0.00001322,0.00000016,0.00000975,-0.00000634,-0.00000043,0
 .00004517,-0.00004771,-0.00000034,0.00000549,0.00000274,-0.00000020,-0
 .00003816,-0.00000646,-0.00000026,0.00004986,0.00003414,-0.00000983,0.
 00008336,-0.00011253,0.00000589,-0.00005499,0.00014141,0.00000552,-0.0
 0003782,-0.00003405,-0.00000360\\\@


 RESEARCH IS WHAT I AM DOING WHEN I DON'T KNOW WHAT I AM DOING.
     -- WERNER VON BRAUN
 Job cpu time:       0 days  0 hours 23 minutes 44.8 seconds.
 Elapsed time:       0 days  0 hours 23 minutes 46.9 seconds.
 File lengths (MBytes):  RWF=    173 Int=      0 D2E=      0 Chk=     11 Scr=      1
 Normal termination of Gaussian 16 at Mon Jan 20 15:18:00 2025.
