 Entering Gaussian System, Link 0=g16
 Initial command:
 /sw/cluster/pub/apps//g16/l1.exe "/data/mmaximo/27753/Gau-1916789.inp" -scrdir="/data/mmaximo/27753/"
 Entering Link 1 = /sw/cluster/pub/apps//g16/l1.exe PID=   1916790.
  
 Copyright (c) 1988,1990,1992,1993,1995,1998,2003,2009,2016,
            Gaussian, Inc.  All Rights Reserved.
  
 This is part of the Gaussian(R) 16 program.  It is based on
 the Gaussian(R) 09 system (copyright 2009, Gaussian, Inc.),
 the Gaussian(R) 03 system (copyright 2003, Gaussian, Inc.),
 the Gaussian(R) 98 system (copyright 1998, Gaussian, Inc.),
 the Gaussian(R) 94 system (copyright 1995, Gaussian, Inc.),
 the Gaussian 92(TM) system (copyright 1992, Gaussian, Inc.),
 the Gaussian 90(TM) system (copyright 1990, Gaussian, Inc.),
 the Gaussian 88(TM) system (copyright 1988, Gaussian, Inc.),
 the Gaussian 86(TM) system (copyright 1986, Carnegie Mellon
 University), and the Gaussian 82(TM) system (copyright 1983,
 Carnegie Mellon University). Gaussian is a federally registered
 trademark of Gaussian, Inc.
  
 This software contains proprietary and confidential information,
 including trade secrets, belonging to Gaussian, Inc.
  
 This software is provided under written license and may be
 used, copied, transmitted, or stored only in accord with that
 written license.
  
 The following legend is applicable only to US Government
 contracts under FAR:
  
                    RESTRICTED RIGHTS LEGEND
  
 Use, reproduction and disclosure by the US Government is
 subject to restrictions as set forth in subparagraphs (a)
 and (c) of the Commercial Computer Software - Restricted
 Rights clause in FAR 52.227-19.
  
 Gaussian, Inc.
 340 Quinnipiac St., Bldg. 40, Wallingford CT 06492
  
  
 ---------------------------------------------------------------
 Warning -- This program may not be used in any manner that
 competes with the business of Gaussian, Inc. or will provide
 assistance to any competitor of Gaussian, Inc.  The licensee
 of this program is prohibited from giving any competitor of
 Gaussian, Inc. access to this program.  By using this program,
 the user acknowledges that Gaussian, Inc. is engaged in the
 business of creating and licensing software in the field of
 computational chemistry and represents and warrants to the
 licensee that it is not a competitor of Gaussian, Inc. and that
 it will not use this program in any manner prohibited above.
 ---------------------------------------------------------------
  

 Cite this work as:
 Gaussian 16, Revision A.03,
 M. J. Frisch, G. W. Trucks, H. B. Schlegel, G. E. Scuseria, 
 M. A. Robb, J. R. Cheeseman, G. Scalmani, V. Barone, 
 G. A. Petersson, H. Nakatsuji, X. Li, M. Caricato, A. V. Marenich, 
 J. Bloino, B. G. Janesko, R. Gomperts, B. Mennucci, H. P. Hratchian, 
 J. V. Ortiz, A. F. Izmaylov, J. L. Sonnenberg, D. Williams-Young, 
 F. Ding, F. Lipparini, F. Egidi, J. Goings, B. Peng, A. Petrone, 
 T. Henderson, D. Ranasinghe, V. G. Zakrzewski, J. Gao, N. Rega, 
 G. Zheng, W. Liang, M. Hada, M. Ehara, K. Toyota, R. Fukuda, 
 J. Hasegawa, M. Ishida, T. Nakajima, Y. Honda, O. Kitao, H. Nakai, 
 T. Vreven, K. Throssell, J. A. Montgomery, Jr., J. E. Peralta, 
 F. Ogliaro, M. J. Bearpark, J. J. Heyd, E. N. Brothers, K. N. Kudin, 
 V. N. Staroverov, T. A. Keith, R. Kobayashi, J. Normand, 
 K. Raghavachari, A. P. Rendell, J. C. Burant, S. S. Iyengar, 
 J. Tomasi, M. Cossi, J. M. Millam, M. Klene, C. Adamo, R. Cammi, 
 J. W. Ochterski, R. L. Martin, K. Morokuma, O. Farkas, 
 J. B. Foresman, and D. J. Fox, Gaussian, Inc., Wallingford CT, 2016.
 
 ******************************************
 Gaussian 16:  ES64L-G16RevA.03 25-Dec-2016
                14-Jan-2025 
 ******************************************
 %chk=C6H4O2.chk
 ----------------------------------------
 #P B3LYP/def2tzvp nosymm Density=Current
 ----------------------------------------
 1/30=1,38=1,172=1/1;
 2/12=2,15=1,17=6,18=5,40=1/2;
 3/5=44,7=101,11=2,25=1,30=1,74=-5/1,2,3;
 4//1;
 5/5=2,38=5/2;
 6/7=2,8=2,9=2,10=2,22=-1,28=1/1;
 99/5=1,9=1/99;
 Leave Link    1 at Tue Jan 14 14:06:01 2025, MaxMem=           0 cpu:               0.0 elap:               0.0
 (Enter /sw/cluster/pub/apps//g16/l101.exe)
 ------------
 Single-Point
 ------------
 Symbolic Z-matrix:
 Charge =  0 Multiplicity = 1
 C                     0.        1.43899   0. 
 C                     1.26587   0.66803   0. 
 C                     1.26587  -0.66803   0. 
 C                     0.       -1.43899   0. 
 C                    -1.26587  -0.66803   0. 
 C                    -1.26587   0.66803   0. 
 H                     2.17697   1.25374   0. 
 H                     2.17697  -1.25374   0. 
 H                    -2.17697  -1.25374   0. 
 H                    -2.17697   1.25374   0. 
 O                     0.       -2.65666   0. 
 O                     0.        2.65666   0. 
 
 ITRead=  0  0  0  0  0  0  0  0  0  0  0  0
 MicOpt= -1 -1 -1 -1 -1 -1 -1 -1 -1 -1 -1 -1
 NAtoms=     12 NQM=       12 NQMF=       0 NMMI=      0 NMMIF=      0
                NMic=       0 NMicF=      0.
                    Isotopes and Nuclear Properties:
 (Nuclear quadrupole moments (NQMom) in fm**2, nuclear magnetic moments (NMagM)
  in nuclear magnetons)

  Atom         1           2           3           4           5           6           7           8           9          10
 IAtWgt=          12          12          12          12          12          12           1           1           1           1
 AtmWgt=  12.0000000  12.0000000  12.0000000  12.0000000  12.0000000  12.0000000   1.0078250   1.0078250   1.0078250   1.0078250
 NucSpn=           0           0           0           0           0           0           1           1           1           1
 AtZEff=  -0.0000000  -0.0000000  -0.0000000  -0.0000000  -0.0000000  -0.0000000  -0.0000000  -0.0000000  -0.0000000  -0.0000000
 NQMom=    0.0000000   0.0000000   0.0000000   0.0000000   0.0000000   0.0000000   0.0000000   0.0000000   0.0000000   0.0000000
 NMagM=    0.0000000   0.0000000   0.0000000   0.0000000   0.0000000   0.0000000   2.7928460   2.7928460   2.7928460   2.7928460
 AtZNuc=   6.0000000   6.0000000   6.0000000   6.0000000   6.0000000   6.0000000   1.0000000   1.0000000   1.0000000   1.0000000

  Atom        11          12
 IAtWgt=          16          16
 AtmWgt=  15.9949146  15.9949146
 NucSpn=           0           0
 AtZEff=  -0.0000000  -0.0000000
 NQMom=    0.0000000   0.0000000
 NMagM=    0.0000000   0.0000000
 AtZNuc=   8.0000000   8.0000000
 Leave Link  101 at Tue Jan 14 14:06:01 2025, MaxMem=   104857600 cpu:               0.0 elap:               0.0
 (Enter /sw/cluster/pub/apps//g16/l202.exe)
                          Input orientation:                          
 ---------------------------------------------------------------------
 Center     Atomic      Atomic             Coordinates (Angstroms)
 Number     Number       Type             X           Y           Z
 ---------------------------------------------------------------------
      1          6           0        0.000000    1.438994    0.000000
      2          6           0        1.265870    0.668026    0.000000
      3          6           0        1.265870   -0.668026    0.000000
      4          6           0        0.000000   -1.438994    0.000000
      5          6           0       -1.265870   -0.668026    0.000000
      6          6           0       -1.265870    0.668026    0.000000
      7          1           0        2.176967    1.253741    0.000000
      8          1           0        2.176967   -1.253741    0.000000
      9          1           0       -2.176967   -1.253741    0.000000
     10          1           0       -2.176967    1.253741    0.000000
     11          8           0        0.000000   -2.656661    0.000000
     12          8           0        0.000000    2.656661    0.000000
 ---------------------------------------------------------------------
                    Distance matrix (angstroms):
                    1          2          3          4          5
     1  C    0.000000
     2  C    1.482167   0.000000
     3  C    2.458040   1.336052   0.000000
     4  C    2.877987   2.458040   1.482167   0.000000
     5  C    2.458040   2.862646   2.531740   1.482167   0.000000
     6  C    1.482167   2.531740   2.862646   2.458040   1.336052
     7  H    2.184835   1.083125   2.126801   3.462658   3.942882
     8  H    3.462658   2.126801   1.083125   2.184835   3.492304
     9  H    3.462658   3.942882   3.492304   2.184835   1.083125
    10  H    2.184835   3.492304   3.942882   3.462658   2.126801
    11  O    4.095655   3.557523   2.357349   1.217667   2.357349
    12  O    1.217667   2.357349   3.557523   4.095655   3.557523
                    6          7          8          9         10
     6  C    0.000000
     7  H    3.492304   0.000000
     8  H    3.942882   2.507481   0.000000
     9  H    2.126801   5.024361   4.353934   0.000000
    10  H    1.083125   4.353934   5.024361   2.507481   0.000000
    11  O    3.557523   4.475536   2.589859   2.589859   4.475536
    12  O    2.357349   2.589859   4.475536   4.475536   2.589859
                   11         12
    11  O    0.000000
    12  O    5.313322   0.000000
 Symmetry turned off by external request.
 Stoichiometry    C6H4O2
 Framework group  D2H[C2"(OC.CO),SG(C4H4)]
 Deg. of freedom     6
 Full point group                 D2H     NOp   8
 Rotational constants (GHZ):           5.2631810           1.6666344           1.2658055
 Leave Link  202 at Tue Jan 14 14:06:01 2025, MaxMem=   104857600 cpu:               0.0 elap:               0.0
 (Enter /sw/cluster/pub/apps//g16/l301.exe)
 Standard basis: def2TZVP (5D, 7F)
 Ernie: Thresh=  0.10000D-02 Tol=  0.10000D-05 Strict=F.
   272 basis functions,   440 primitive gaussians,   312 cartesian basis functions
    28 alpha electrons       28 beta electrons
       nuclear repulsion energy       323.2996480791 Hartrees.
 IExCor=  402 DFT=T Ex+Corr=B3LYP ExCW=0 ScaHFX=  0.200000
 ScaDFX=  0.800000  0.720000  1.000000  0.810000 ScalE2=  1.000000  1.000000
 IRadAn=      5 IRanWt=     -1 IRanGd=            0 ICorTp=0 IEmpDi=  4
 NAtoms=   12 NActive=   12 NUniq=   12 SFac= 1.00D+00 NAtFMM=   60 NAOKFM=F Big=F
 Integral buffers will be    131072 words long.
 Raffenetti 2 integral format.
 Two-electron integral symmetry is turned off.
 Leave Link  301 at Tue Jan 14 14:06:01 2025, MaxMem=   104857600 cpu:               0.0 elap:               0.0
 (Enter /sw/cluster/pub/apps//g16/l302.exe)
 NPDir=0 NMtPBC=     1 NCelOv=     1 NCel=       1 NClECP=     1 NCelD=      1
         NCelK=      1 NCelE2=     1 NClLst=     1 CellRange=     0.0.
 One-electron integrals computed using PRISM.
   1 Symmetry operations used in ECPInt.
 ECPInt:  NShTT=    5460 NPrTT=   17208 LenC2=    5340 LenP2D=   13578.
 LDataN:  DoStor=T MaxTD1= 6 Len=  172
 NBasis=   272 RedAO= T EigKep=  1.61D-05  NBF=   272
 NBsUse=   272 1.00D-06 EigRej= -1.00D+00 NBFU=   272
 Precomputing XC quadrature grid using
 IXCGrd= 4 IRadAn=           5 IRanWt=          -1 IRanGd=           0 AccXCQ= 0.00D+00.
 Generated NRdTot=       0 NPtTot=           0 NUsed=           0 NTot=          32
 NSgBfM=   310   310   310   310   310 MxSgAt=    12 MxSgA2=    12.
 Leave Link  302 at Tue Jan 14 14:06:01 2025, MaxMem=   104857600 cpu:               0.1 elap:               0.1
 (Enter /sw/cluster/pub/apps//g16/l303.exe)
 DipDrv:  MaxL=1.
 Leave Link  303 at Tue Jan 14 14:06:01 2025, MaxMem=   104857600 cpu:               0.0 elap:               0.0
 (Enter /sw/cluster/pub/apps//g16/l401.exe)
 ExpMin= 9.52D-02 ExpMax= 2.70D+04 ExpMxC= 9.22D+02 IAcc=3 IRadAn=         5 AccDes= 0.00D+00
 Harris functional with IExCor=  402 and IRadAn=       5 diagonalized for initial guess.
 HarFok:  IExCor=  402 AccDes= 0.00D+00 IRadAn=         5 IDoV= 1 UseB2=F ITyADJ=14
 ICtDFT=  3500011 ScaDFX=  1.000000  1.000000  1.000000  1.000000
 FoFCou: FMM=F IPFlag=           0 FMFlag=      100000 FMFlg1=           0
         NFxFlg=           0 DoJE=T BraDBF=F KetDBF=T FulRan=T
         wScrn=  0.000000 ICntrl=       500 IOpCl=  0 I1Cent=   200000004 NGrid=           0
         NMat0=    1 NMatS0=      1 NMatT0=    0 NMatD0=    1 NMtDS0=    0 NMtDT0=    0
 Symmetry not used in FoFCou.
 Harris En= -381.632347076728    
 JPrj=0 DoOrth=F DoCkMO=F.
 Leave Link  401 at Tue Jan 14 14:06:03 2025, MaxMem=   104857600 cpu:               1.8 elap:               1.8
 (Enter /sw/cluster/pub/apps//g16/l502.exe)
 Two-electron integral symmetry not used.
 Closed shell SCF:
 Using DIIS extrapolation, IDIIS=  1040.
 NGot=   104857600 LenX=   104658960 LenY=   104561175
 Requested convergence on RMS density matrix=1.00D-08 within 128 cycles.
 Requested convergence on MAX density matrix=1.00D-06.
 Requested convergence on             energy=1.00D-06.
 No special actions if energy rises.
 Fock matrices will be formed incrementally for  20 cycles.
 Integral accuracy reduced to 1.0D-05 until final iterations.

 Cycle   1  Pass 0  IDiag  1:
 FoFJK:  IHMeth= 1 ICntrl=       0 DoSepK=F KAlg= 0 I1Cent=           0 FoldK=F
 IRaf= 960000000 NMat=       1 IRICut=       1 DoRegI=T DoRafI=F ISym2E= 0 IDoP0=0 IntGTp=1.
 FoFCou: FMM=F IPFlag=           0 FMFlag=      100000 FMFlg1=           0
         NFxFlg=           0 DoJE=F BraDBF=F KetDBF=F FulRan=T
         wScrn=  0.000000 ICntrl=         0 IOpCl=  0 I1Cent=           0 NGrid=           0
         NMat0=    1 NMatS0=      1 NMatT0=    0 NMatD0=    1 NMtDS0=    0 NMtDT0=    0
 Symmetry not used in FoFCou.
 E= -381.417105283035    
 DIIS: error= 4.56D-02 at cycle   1 NSaved=   1.
 NSaved= 1 IEnMin= 1 EnMin= -381.417105283035     IErMin= 1 ErrMin= 4.56D-02
 ErrMax= 4.56D-02  0.00D+00 EMaxC= 1.00D-01 BMatC= 2.45D-01 BMatP= 2.45D-01
 IDIUse=3 WtCom= 5.44D-01 WtEn= 4.56D-01
 Coeff-Com:  0.100D+01
 Coeff-En:   0.100D+01
 Coeff:      0.100D+01
 Gap=     0.099 Goal=   None    Shift=    0.000
 GapD=    0.099 DampG=0.500 DampE=0.500 DampFc=0.2500 IDamp=-1.
 Damping current iteration by 2.50D-01
 RMSDP=1.23D-02 MaxDP=6.86D-01              OVMax= 2.96D-01

 Cycle   2  Pass 0  IDiag  1:
 RMSU=  3.07D-03    CP:  1.02D+00
 E= -381.482943310320     Delta-E=       -0.065838027284 Rises=F Damp=T
 DIIS: error= 1.82D-02 at cycle   2 NSaved=   2.
 NSaved= 2 IEnMin= 2 EnMin= -381.482943310320     IErMin= 2 ErrMin= 1.82D-02
 ErrMax= 1.82D-02  0.00D+00 EMaxC= 1.00D-01 BMatC= 5.17D-02 BMatP= 2.45D-01
 IDIUse=3 WtCom= 8.18D-01 WtEn= 1.82D-01
 Coeff-Com: -0.542D+00 0.154D+01
 Coeff-En:   0.000D+00 0.100D+01
 Coeff:     -0.444D+00 0.144D+01
 Gap=     0.149 Goal=   None    Shift=    0.000
 RMSDP=1.48D-03 MaxDP=4.98D-02 DE=-6.58D-02 OVMax= 2.45D-01

 Cycle   3  Pass 0  IDiag  1:
 RMSU=  1.46D-03    CP:  1.00D+00  9.27D-01
 E= -381.577986785166     Delta-E=       -0.095043474847 Rises=F Damp=F
 DIIS: error= 1.69D-02 at cycle   3 NSaved=   3.
 NSaved= 3 IEnMin= 3 EnMin= -381.577986785166     IErMin= 3 ErrMin= 1.69D-02
 ErrMax= 1.69D-02  0.00D+00 EMaxC= 1.00D-01 BMatC= 2.92D-02 BMatP= 5.17D-02
 IDIUse=3 WtCom= 8.31D-01 WtEn= 1.69D-01
 Coeff-Com: -0.364D+00 0.874D+00 0.490D+00
 Coeff-En:   0.000D+00 0.000D+00 0.100D+01
 Coeff:     -0.302D+00 0.726D+00 0.577D+00
 Gap=     0.139 Goal=   None    Shift=    0.000
 RMSDP=7.73D-04 MaxDP=2.48D-02 DE=-9.50D-02 OVMax= 8.11D-02

 Cycle   4  Pass 0  IDiag  1:
 RMSU=  5.42D-04    CP:  1.01D+00  1.08D+00  8.27D-01
 E= -381.597071712594     Delta-E=       -0.019084927428 Rises=F Damp=F
 DIIS: error= 1.12D-02 at cycle   4 NSaved=   4.
 NSaved= 4 IEnMin= 4 EnMin= -381.597071712594     IErMin= 4 ErrMin= 1.12D-02
 ErrMax= 1.12D-02  0.00D+00 EMaxC= 1.00D-01 BMatC= 9.44D-03 BMatP= 2.92D-02
 IDIUse=3 WtCom= 8.88D-01 WtEn= 1.12D-01
 Coeff-Com: -0.334D-02 0.615D-01 0.350D+00 0.592D+00
 Coeff-En:   0.000D+00 0.000D+00 0.274D+00 0.726D+00
 Coeff:     -0.296D-02 0.546D-01 0.341D+00 0.607D+00
 Gap=     0.143 Goal=   None    Shift=    0.000
 RMSDP=5.20D-04 MaxDP=2.42D-02 DE=-1.91D-02 OVMax= 3.20D-02

 Cycle   5  Pass 0  IDiag  1:
 RMSU=  7.52D-05    CP:  1.01D+00  9.32D-01  8.74D-01  6.39D-01
 E= -381.605200435297     Delta-E=       -0.008128722703 Rises=F Damp=F
 DIIS: error= 9.40D-04 at cycle   5 NSaved=   5.
 NSaved= 5 IEnMin= 5 EnMin= -381.605200435297     IErMin= 5 ErrMin= 9.40D-04
 ErrMax= 9.40D-04  0.00D+00 EMaxC= 1.00D-01 BMatC= 1.14D-04 BMatP= 9.44D-03
 IDIUse=3 WtCom= 9.91D-01 WtEn= 9.40D-03
 Coeff-Com:  0.869D-02-0.857D-02 0.106D+00 0.244D+00 0.649D+00
 Coeff-En:   0.000D+00 0.000D+00 0.000D+00 0.000D+00 0.100D+01
 Coeff:      0.860D-02-0.849D-02 0.105D+00 0.242D+00 0.652D+00
 Gap=     0.142 Goal=   None    Shift=    0.000
 RMSDP=7.85D-05 MaxDP=3.70D-03 DE=-8.13D-03 OVMax= 3.09D-03

 Cycle   6  Pass 0  IDiag  1:
 RMSU=  1.92D-05    CP:  1.01D+00  9.55D-01  8.77D-01  6.53D-01  7.12D-01
 E= -381.605288845184     Delta-E=       -0.000088409887 Rises=F Damp=F
 DIIS: error= 2.56D-04 at cycle   6 NSaved=   6.
 NSaved= 6 IEnMin= 6 EnMin= -381.605288845184     IErMin= 6 ErrMin= 2.56D-04
 ErrMax= 2.56D-04  0.00D+00 EMaxC= 1.00D-01 BMatC= 6.28D-06 BMatP= 1.14D-04
 IDIUse=3 WtCom= 9.97D-01 WtEn= 2.56D-03
 Coeff-Com:  0.299D-02-0.538D-02 0.257D-01 0.705D-01 0.296D+00 0.610D+00
 Coeff-En:   0.000D+00 0.000D+00 0.000D+00 0.000D+00 0.000D+00 0.100D+01
 Coeff:      0.299D-02-0.537D-02 0.256D-01 0.703D-01 0.296D+00 0.611D+00
 Gap=     0.142 Goal=   None    Shift=    0.000
 RMSDP=1.51D-05 MaxDP=7.36D-04 DE=-8.84D-05 OVMax= 5.12D-04

 Cycle   7  Pass 0  IDiag  1:
 RMSU=  5.30D-06    CP:  1.01D+00  9.51D-01  8.77D-01  6.54D-01  7.38D-01
                    CP:  6.96D-01
 E= -381.605294924429     Delta-E=       -0.000006079244 Rises=F Damp=F
 DIIS: error= 3.57D-05 at cycle   7 NSaved=   7.
 NSaved= 7 IEnMin= 7 EnMin= -381.605294924429     IErMin= 7 ErrMin= 3.57D-05
 ErrMax= 3.57D-05  0.00D+00 EMaxC= 1.00D-01 BMatC= 9.86D-08 BMatP= 6.28D-06
 IDIUse=1 WtCom= 1.00D+00 WtEn= 0.00D+00
 Coeff-Com:  0.316D-03-0.912D-03 0.112D-02 0.557D-02 0.440D-01 0.158D+00
 Coeff-Com:  0.792D+00
 Coeff:      0.316D-03-0.912D-03 0.112D-02 0.557D-02 0.440D-01 0.158D+00
 Coeff:      0.792D+00
 Gap=     0.142 Goal=   None    Shift=    0.000
 RMSDP=2.25D-06 MaxDP=9.35D-05 DE=-6.08D-06 OVMax= 1.08D-04

 Initial convergence to 1.0D-05 achieved.  Increase integral accuracy.
 Cycle   8  Pass 1  IDiag  1:
 E= -381.605292209691     Delta-E=        0.000002714738 Rises=F Damp=F
 DIIS: error= 1.07D-04 at cycle   1 NSaved=   1.
 NSaved= 1 IEnMin= 1 EnMin= -381.605292209691     IErMin= 1 ErrMin= 1.07D-04
 ErrMax= 1.07D-04  0.00D+00 EMaxC= 1.00D-01 BMatC= 3.19D-07 BMatP= 3.19D-07
 IDIUse=3 WtCom= 9.99D-01 WtEn= 1.07D-03
 Coeff-Com:  0.100D+01
 Coeff-En:   0.100D+01
 Coeff:      0.100D+01
 Gap=     0.142 Goal=   None    Shift=    0.000
 RMSDP=2.25D-06 MaxDP=9.35D-05 DE= 2.71D-06 OVMax= 6.06D-05

 Cycle   9  Pass 1  IDiag  1:
 RMSU=  5.65D-05    CP:  9.98D-01
 E= -381.605292303465     Delta-E=       -0.000000093774 Rises=F Damp=F
 DIIS: error= 3.99D-06 at cycle   2 NSaved=   2.
 NSaved= 2 IEnMin= 2 EnMin= -381.605292303465     IErMin= 2 ErrMin= 3.99D-06
 ErrMax= 3.99D-06  0.00D+00 EMaxC= 1.00D-01 BMatC= 2.59D-09 BMatP= 3.19D-07
 IDIUse=1 WtCom= 1.00D+00 WtEn= 0.00D+00
 Coeff-Com:  0.862D-02 0.991D+00
 Coeff:      0.862D-02 0.991D+00
 Gap=     0.142 Goal=   None    Shift=    0.000
 RMSDP=8.07D-07 MaxDP=3.76D-05 DE=-9.38D-08 OVMax= 4.38D-05

 Cycle  10  Pass 1  IDiag  1:
 RMSU=  6.63D-07    CP:  9.98D-01  1.01D+00
 E= -381.605292297736     Delta-E=        0.000000005729 Rises=F Damp=F
 DIIS: error= 1.02D-05 at cycle   3 NSaved=   3.
 NSaved= 3 IEnMin= 2 EnMin= -381.605292303465     IErMin= 2 ErrMin= 3.99D-06
 ErrMax= 1.02D-05  0.00D+00 EMaxC= 1.00D-01 BMatC= 1.04D-08 BMatP= 2.59D-09
 IDIUse=1 WtCom= 1.00D+00 WtEn= 0.00D+00
 Coeff-Com: -0.187D-02 0.674D+00 0.328D+00
 Coeff:     -0.187D-02 0.674D+00 0.328D+00
 Gap=     0.142 Goal=   None    Shift=    0.000
 RMSDP=7.05D-07 MaxDP=3.49D-05 DE= 5.73D-09 OVMax= 3.51D-05

 Cycle  11  Pass 1  IDiag  1:
 RMSU=  1.91D-07    CP:  9.98D-01  1.02D+00  3.96D-01
 E= -381.605292305307     Delta-E=       -0.000000007571 Rises=F Damp=F
 DIIS: error= 1.40D-06 at cycle   4 NSaved=   4.
 NSaved= 4 IEnMin= 4 EnMin= -381.605292305307     IErMin= 4 ErrMin= 1.40D-06
 ErrMax= 1.40D-06  0.00D+00 EMaxC= 1.00D-01 BMatC= 2.07D-10 BMatP= 2.59D-09
 IDIUse=1 WtCom= 1.00D+00 WtEn= 0.00D+00
 Coeff-Com: -0.162D-02 0.312D+00 0.185D+00 0.505D+00
 Coeff:     -0.162D-02 0.312D+00 0.185D+00 0.505D+00
 Gap=     0.142 Goal=   None    Shift=    0.000
 RMSDP=4.66D-08 MaxDP=1.15D-06 DE=-7.57D-09 OVMax= 4.67D-06

 Cycle  12  Pass 1  IDiag  1:
 RMSU=  3.95D-08    CP:  9.98D-01  1.02D+00  3.90D-01  9.92D-01
 E= -381.605292305481     Delta-E=       -0.000000000174 Rises=F Damp=F
 DIIS: error= 2.57D-07 at cycle   5 NSaved=   5.
 NSaved= 5 IEnMin= 5 EnMin= -381.605292305481     IErMin= 5 ErrMin= 2.57D-07
 ErrMax= 2.57D-07  0.00D+00 EMaxC= 1.00D-01 BMatC= 6.07D-12 BMatP= 2.07D-10
 IDIUse=1 WtCom= 1.00D+00 WtEn= 0.00D+00
 Coeff-Com: -0.603D-03 0.994D-01 0.606D-01 0.223D+00 0.618D+00
 Coeff:     -0.603D-03 0.994D-01 0.606D-01 0.223D+00 0.618D+00
 Gap=     0.142 Goal=   None    Shift=    0.000
 RMSDP=1.03D-08 MaxDP=3.09D-07 DE=-1.74D-10 OVMax= 5.98D-07

 Cycle  13  Pass 1  IDiag  1:
 RMSU=  6.21D-09    CP:  9.98D-01  1.02D+00  3.94D-01  1.01D+00  9.24D-01
 E= -381.605292305488     Delta-E=       -0.000000000007 Rises=F Damp=F
 DIIS: error= 3.98D-08 at cycle   6 NSaved=   6.
 NSaved= 6 IEnMin= 6 EnMin= -381.605292305488     IErMin= 6 ErrMin= 3.98D-08
 ErrMax= 3.98D-08  0.00D+00 EMaxC= 1.00D-01 BMatC= 2.12D-13 BMatP= 6.07D-12
 IDIUse=1 WtCom= 1.00D+00 WtEn= 0.00D+00
 Coeff-Com: -0.741D-04 0.839D-02 0.461D-02 0.345D-01 0.187D+00 0.765D+00
 Coeff:     -0.741D-04 0.839D-02 0.461D-02 0.345D-01 0.187D+00 0.765D+00
 Gap=     0.142 Goal=   None    Shift=    0.000
 RMSDP=3.85D-09 MaxDP=1.21D-07 DE=-6.82D-12 OVMax= 1.16D-07

 SCF Done:  E(RB3LYP) =  -381.605292305     A.U. after   13 cycles
            NFock= 13  Conv=0.38D-08     -V/T= 2.0046
 KE= 3.798478959104D+02 PE=-1.537920949267D+03 EE= 4.531681129717D+02
 Leave Link  502 at Tue Jan 14 14:07:27 2025, MaxMem=   104857600 cpu:              83.7 elap:              83.9
 (Enter /sw/cluster/pub/apps//g16/l601.exe)
 Copying SCF densities to generalized density rwf, IOpCl= 0 IROHF=0.

 **********************************************************************

            Population analysis using the SCF density.

 **********************************************************************

 Alpha  occ. eigenvalues --  -19.14692 -19.14691 -10.28960 -10.28958 -10.22149
 Alpha  occ. eigenvalues --  -10.22146 -10.22062 -10.22061  -1.07312  -1.07112
 Alpha  occ. eigenvalues --   -0.87206  -0.80379  -0.71688  -0.65162  -0.61744
 Alpha  occ. eigenvalues --   -0.52778  -0.51912  -0.49594  -0.47479  -0.45683
 Alpha  occ. eigenvalues --   -0.45186  -0.43367  -0.42398  -0.41235  -0.32016
 Alpha  occ. eigenvalues --   -0.31649  -0.29274  -0.28310
 Alpha virt. eigenvalues --   -0.14108  -0.04277  -0.00442   0.04370   0.05813
 Alpha virt. eigenvalues --    0.07722   0.09226   0.10729   0.10931   0.12938
 Alpha virt. eigenvalues --    0.13842   0.17460   0.18019   0.18251   0.19631
 Alpha virt. eigenvalues --    0.21464   0.22699   0.25039   0.28566   0.28825
 Alpha virt. eigenvalues --    0.29040   0.30352   0.30693   0.31741   0.31742
 Alpha virt. eigenvalues --    0.33537   0.35083   0.37286   0.38490   0.39269
 Alpha virt. eigenvalues --    0.40341   0.40426   0.40629   0.43677   0.43714
 Alpha virt. eigenvalues --    0.45562   0.46547   0.48348   0.48899   0.51149
 Alpha virt. eigenvalues --    0.56311   0.57967   0.58038   0.58269   0.60441
 Alpha virt. eigenvalues --    0.61129   0.67774   0.68517   0.68849   0.70479
 Alpha virt. eigenvalues --    0.70919   0.75076   0.76464   0.80270   0.82733
 Alpha virt. eigenvalues --    0.83181   0.83308   0.83484   0.84265   0.85015
 Alpha virt. eigenvalues --    0.86178   0.97731   0.97783   0.99760   1.01764
 Alpha virt. eigenvalues --    1.02057   1.07014   1.09064   1.13299   1.14380
 Alpha virt. eigenvalues --    1.15456   1.17929   1.19373   1.19635   1.24265
 Alpha virt. eigenvalues --    1.25055   1.30172   1.34745   1.36326   1.36531
 Alpha virt. eigenvalues --    1.36974   1.40049   1.40557   1.45448   1.46338
 Alpha virt. eigenvalues --    1.46396   1.52715   1.55400   1.56435   1.57629
 Alpha virt. eigenvalues --    1.59060   1.63051   1.65272   1.66470   1.67703
 Alpha virt. eigenvalues --    1.68799   1.74254   1.78318   1.79035   1.80210
 Alpha virt. eigenvalues --    1.87978   1.89259   1.91018   1.92378   1.97120
 Alpha virt. eigenvalues --    2.00856   2.00941   2.03520   2.09024   2.10842
 Alpha virt. eigenvalues --    2.10857   2.19706   2.20747   2.21855   2.23660
 Alpha virt. eigenvalues --    2.30785   2.30860   2.36195   2.37897   2.44850
 Alpha virt. eigenvalues --    2.46648   2.48171   2.52484   2.53659   2.55147
 Alpha virt. eigenvalues --    2.56761   2.58913   2.60215   2.61256   2.62662
 Alpha virt. eigenvalues --    2.66766   2.67438   2.69733   2.71863   2.73278
 Alpha virt. eigenvalues --    2.74434   2.74465   2.76728   2.82046   2.82143
 Alpha virt. eigenvalues --    2.86214   2.87546   2.87568   2.88665   2.91305
 Alpha virt. eigenvalues --    2.95780   2.98117   3.01237   3.06548   3.06923
 Alpha virt. eigenvalues --    3.07596   3.08307   3.10744   3.11984   3.12620
 Alpha virt. eigenvalues --    3.12746   3.14978   3.15067   3.22803   3.22963
 Alpha virt. eigenvalues --    3.22999   3.23685   3.26698   3.30863   3.36949
 Alpha virt. eigenvalues --    3.37008   3.37209   3.38640   3.38850   3.39957
 Alpha virt. eigenvalues --    3.41132   3.41361   3.45818   3.46292   3.60722
 Alpha virt. eigenvalues --    3.60730   3.61598   3.65964   3.68800   3.71076
 Alpha virt. eigenvalues --    3.75424   3.79516   3.82491   3.90372   3.90657
 Alpha virt. eigenvalues --    3.91762   3.93066   3.95648   3.96990   4.06319
 Alpha virt. eigenvalues --    4.07392   4.13571   4.13694   4.17912   4.22433
 Alpha virt. eigenvalues --    4.28436   4.37812   4.39998   4.41111   4.48480
 Alpha virt. eigenvalues --    4.49068   4.58167   4.67917   4.73026   4.75206
 Alpha virt. eigenvalues --    4.76851   4.84885   4.93399   5.03804   5.15528
 Alpha virt. eigenvalues --    5.16201   5.19332   5.19966   5.21965   5.27425
 Alpha virt. eigenvalues --    5.53185   5.53414   5.58578   5.67128   5.82986
 Alpha virt. eigenvalues --    6.05115   6.09566   6.33313   6.33371   6.35564
 Alpha virt. eigenvalues --    6.42446   6.49715   6.50551   6.62397   6.72351
 Alpha virt. eigenvalues --    6.76429   6.77820   6.96667   7.02891   7.07154
 Alpha virt. eigenvalues --    7.10646  22.03619  22.34216  22.69691  22.82683
 Alpha virt. eigenvalues --   22.98915  23.38388  43.81775  43.89602
          Condensed to atoms (all electrons):
               1          2          3          4          5          6
     1  C    4.614006   0.212357   0.088632  -0.065691   0.088632   0.212357
     2  C    0.212357   5.593686   0.057434   0.088632  -0.032076  -0.063256
     3  C    0.088632   0.057434   5.593686   0.212357  -0.063256  -0.032076
     4  C   -0.065691   0.088632   0.212357   4.614006   0.212357   0.088632
     5  C    0.088632  -0.032076  -0.063256   0.212357   5.593686   0.057434
     6  C    0.212357  -0.063256  -0.032076   0.088632   0.057434   5.593686
     7  H   -0.037984   0.388776  -0.026220   0.005591  -0.007163   0.018939
     8  H    0.005591  -0.026220   0.388776  -0.037984   0.018939  -0.007163
     9  H    0.005591  -0.007163   0.018939  -0.037984   0.388776  -0.026220
    10  H   -0.037984   0.018939  -0.007163   0.005591  -0.026220   0.388776
    11  O   -0.002379   0.015692  -0.100910   0.634610  -0.100910   0.015692
    12  O    0.634610  -0.100910   0.015692  -0.002379   0.015692  -0.100910
               7          8          9         10         11         12
     1  C   -0.037984   0.005591   0.005591  -0.037984  -0.002379   0.634610
     2  C    0.388776  -0.026220  -0.007163   0.018939   0.015692  -0.100910
     3  C   -0.026220   0.388776   0.018939  -0.007163  -0.100910   0.015692
     4  C    0.005591  -0.037984  -0.037984   0.005591   0.634610  -0.002379
     5  C   -0.007163   0.018939   0.388776  -0.026220  -0.100910   0.015692
     6  C    0.018939  -0.007163  -0.026220   0.388776   0.015692  -0.100910
     7  H    0.519824  -0.009100   0.000106  -0.000279  -0.000231   0.009859
     8  H   -0.009100   0.519824  -0.000279   0.000106   0.009859  -0.000231
     9  H    0.000106  -0.000279   0.519824  -0.009100   0.009859  -0.000231
    10  H   -0.000279   0.000106  -0.009100   0.519824  -0.000231   0.009859
    11  O   -0.000231   0.009859   0.009859  -0.000231   7.785183   0.000006
    12  O    0.009859  -0.000231  -0.000231   0.009859   0.000006   7.785183
 Mulliken charges:
               1
     1  C    0.282261
     2  C   -0.145892
     3  C   -0.145892
     4  C    0.282261
     5  C   -0.145892
     6  C   -0.145892
     7  H    0.137881
     8  H    0.137881
     9  H    0.137881
    10  H    0.137881
    11  O   -0.266240
    12  O   -0.266240
 Sum of Mulliken charges =  -0.00000
 Mulliken charges with hydrogens summed into heavy atoms:
               1
     1  C    0.282261
     2  C   -0.008010
     3  C   -0.008010
     4  C    0.282261
     5  C   -0.008010
     6  C   -0.008010
    11  O   -0.266240
    12  O   -0.266240
 Electronic spatial extent (au):  <R**2>=            866.1050
 Charge=             -0.0000 electrons
 Dipole moment (field-independent basis, Debye):
    X=             -0.0000    Y=             -0.0000    Z=              0.0000  Tot=              0.0000
 Quadrupole moment (field-independent basis, Debye-Ang):
   XX=            -37.6514   YY=            -62.5615   ZZ=            -45.5521
   XY=             -0.0000   XZ=              0.0000   YZ=              0.0000
 Traceless Quadrupole moment (field-independent basis, Debye-Ang):
   XX=             10.9369   YY=            -13.9731   ZZ=              3.0362
   XY=             -0.0000   XZ=              0.0000   YZ=              0.0000
 Octapole moment (field-independent basis, Debye-Ang**2):
  XXX=              0.0000  YYY=             -0.0000  ZZZ=             -0.0000  XYY=             -0.0000
  XXY=              0.0000  XXZ=              0.0000  XZZ=             -0.0000  YZZ=              0.0000
  YYZ=             -0.0000  XYZ=              0.0000
 Hexadecapole moment (field-independent basis, Debye-Ang**3):
 XXXX=           -279.3306 YYYY=           -908.0619 ZZZZ=            -47.4773 XXXY=              0.0000
 XXXZ=              0.0000 YYYX=             -0.0000 YYYZ=              0.0000 ZZZX=              0.0000
 ZZZY=             -0.0000 XXYY=           -160.8030 XXZZ=            -67.1382 YYZZ=           -124.6898
 XXYZ=              0.0000 YYXZ=             -0.0000 ZZXY=             -0.0000
 N-N= 3.232996480791D+02 E-N=-1.537920945983D+03  KE= 3.798478959104D+02
 No NMR shielding tensors so no spin-rotation constants.
 Leave Link  601 at Tue Jan 14 14:07:27 2025, MaxMem=   104857600 cpu:               0.1 elap:               0.1
 (Enter /sw/cluster/pub/apps//g16/l9999.exe)
 1\1\GINC-N02\SP\RB3LYP\def2TZVP\C6H4O2\UNKNOWN\14-Jan-2025\0\\#P B3LYP
 /def2tzvp nosymm Density=Current\\Single-Point\\0,1\C,0,0.,1.4389936,0
 .\C,0,1.26587017,0.66802593,0.\C,0,1.26587017,-0.66802593,0.\C,0,0.,-1
 .4389936,0.\C,0,-1.26587017,-0.66802593,0.\C,0,-1.26587017,0.66802593,
 0.\H,0,2.17696713,1.2537406,0.\H,0,2.17696713,-1.2537406,0.\H,0,-2.176
 96713,-1.2537406,0.\H,0,-2.17696713,1.2537406,0.\O,0,0.,-2.65666095,0.
 \O,0,0.,2.65666095,0.\\Version=ES64L-G16RevA.03\HF=-381.6052923\RMSD=3
 .849e-09\Dipole=0.,0.,0.\Quadrupole=8.1313293,-10.3886932,2.2573639,0.
 ,0.,0.\PG=D02H [C2"(O1C1.C1O1),SG(C4H4)]\\@


     "IF I COULD JUST GET IT ON PAPER"
 LIFE AND INK, THEY RUN OUT AT THE SAME TIME,
 OR SO SAID MY OLD FRIEND THE SQUID.
     -- JIMMY BUFFETT, 1981
 Job cpu time:       0 days  0 hours  1 minutes 25.8 seconds.
 Elapsed time:       0 days  0 hours  1 minutes 26.1 seconds.
 File lengths (MBytes):  RWF=     45 Int=      0 D2E=      0 Chk=      5 Scr=      1
 Normal termination of Gaussian 16 at Tue Jan 14 14:07:27 2025.
