 Entering Gaussian System, Link 0=g16
 Initial command:
 /sw/cluster/pub/apps//g16/l1.exe "/data/mmaximo/27748/Gau-1916434.inp" -scrdir="/data/mmaximo/27748/"
 Entering Link 1 = /sw/cluster/pub/apps//g16/l1.exe PID=   1916435.
  
 Copyright (c) 1988,1990,1992,1993,1995,1998,2003,2009,2016,
            Gaussian, Inc.  All Rights Reserved.
  
 This is part of the Gaussian(R) 16 program.  It is based on
 the Gaussian(R) 09 system (copyright 2009, Gaussian, Inc.),
 the Gaussian(R) 03 system (copyright 2003, Gaussian, Inc.),
 the Gaussian(R) 98 system (copyright 1998, Gaussian, Inc.),
 the Gaussian(R) 94 system (copyright 1995, Gaussian, Inc.),
 the Gaussian 92(TM) system (copyright 1992, Gaussian, Inc.),
 the Gaussian 90(TM) system (copyright 1990, Gaussian, Inc.),
 the Gaussian 88(TM) system (copyright 1988, Gaussian, Inc.),
 the Gaussian 86(TM) system (copyright 1986, Carnegie Mellon
 University), and the Gaussian 82(TM) system (copyright 1983,
 Carnegie Mellon University). Gaussian is a federally registered
 trademark of Gaussian, Inc.
  
 This software contains proprietary and confidential information,
 including trade secrets, belonging to Gaussian, Inc.
  
 This software is provided under written license and may be
 used, copied, transmitted, or stored only in accord with that
 written license.
  
 The following legend is applicable only to US Government
 contracts under FAR:
  
                    RESTRICTED RIGHTS LEGEND
  
 Use, reproduction and disclosure by the US Government is
 subject to restrictions as set forth in subparagraphs (a)
 and (c) of the Commercial Computer Software - Restricted
 Rights clause in FAR 52.227-19.
  
 Gaussian, Inc.
 340 Quinnipiac St., Bldg. 40, Wallingford CT 06492
  
  
 ---------------------------------------------------------------
 Warning -- This program may not be used in any manner that
 competes with the business of Gaussian, Inc. or will provide
 assistance to any competitor of Gaussian, Inc.  The licensee
 of this program is prohibited from giving any competitor of
 Gaussian, Inc. access to this program.  By using this program,
 the user acknowledges that Gaussian, Inc. is engaged in the
 business of creating and licensing software in the field of
 computational chemistry and represents and warrants to the
 licensee that it is not a competitor of Gaussian, Inc. and that
 it will not use this program in any manner prohibited above.
 ---------------------------------------------------------------
  

 Cite this work as:
 Gaussian 16, Revision A.03,
 M. J. Frisch, G. W. Trucks, H. B. Schlegel, G. E. Scuseria, 
 M. A. Robb, J. R. Cheeseman, G. Scalmani, V. Barone, 
 G. A. Petersson, H. Nakatsuji, X. Li, M. Caricato, A. V. Marenich, 
 J. Bloino, B. G. Janesko, R. Gomperts, B. Mennucci, H. P. Hratchian, 
 J. V. Ortiz, A. F. Izmaylov, J. L. Sonnenberg, D. Williams-Young, 
 F. Ding, F. Lipparini, F. Egidi, J. Goings, B. Peng, A. Petrone, 
 T. Henderson, D. Ranasinghe, V. G. Zakrzewski, J. Gao, N. Rega, 
 G. Zheng, W. Liang, M. Hada, M. Ehara, K. Toyota, R. Fukuda, 
 J. Hasegawa, M. Ishida, T. Nakajima, Y. Honda, O. Kitao, H. Nakai, 
 T. Vreven, K. Throssell, J. A. Montgomery, Jr., J. E. Peralta, 
 F. Ogliaro, M. J. Bearpark, J. J. Heyd, E. N. Brothers, K. N. Kudin, 
 V. N. Staroverov, T. A. Keith, R. Kobayashi, J. Normand, 
 K. Raghavachari, A. P. Rendell, J. C. Burant, S. S. Iyengar, 
 J. Tomasi, M. Cossi, J. M. Millam, M. Klene, C. Adamo, R. Cammi, 
 J. W. Ochterski, R. L. Martin, K. Morokuma, O. Farkas, 
 J. B. Foresman, and D. J. Fox, Gaussian, Inc., Wallingford CT, 2016.
 
 ******************************************
 Gaussian 16:  ES64L-G16RevA.03 25-Dec-2016
                14-Jan-2025 
 ******************************************
 %chk=C6H5CH3.chk
 ----------------------------------------
 #P B3LYP/def2tzvp nosymm Density=Current
 ----------------------------------------
 1/30=1,38=1,172=1/1;
 2/12=2,15=1,17=6,18=5,40=1/2;
 3/5=44,7=101,11=2,25=1,30=1,74=-5/1,2,3;
 4//1;
 5/5=2,38=5/2;
 6/7=2,8=2,9=2,10=2,22=-1,28=1/1;
 99/5=1,9=1/99;
 Leave Link    1 at Tue Jan 14 14:00:24 2025, MaxMem=           0 cpu:               0.0 elap:               0.0
 (Enter /sw/cluster/pub/apps//g16/l101.exe)
 ------------
 Single-Point
 ------------
 Symbolic Z-matrix:
 Charge =  0 Multiplicity = 1
 C                     0.911     0.        0.00428 
 C                     0.19349   1.1973    0.00734 
 C                    -1.19662   1.20029   0.00734 
 C                    -1.898     0.        0.00632 
 C                    -1.19662  -1.20029   0.00734 
 C                     0.19349  -1.1973    0.00734 
 C                     2.41726   0.       -0.0281 
 H                     0.73042   2.13919   0.01225 
 H                    -1.73219   2.14172   0.01201 
 H                    -2.98067   0.        0.00921 
 H                    -1.73219  -2.14172   0.01201 
 H                     0.73042  -2.13919   0.01225 
 H                     2.78756   0.       -1.05762 
 H                     2.82633   0.88334   0.46436 
 H                     2.82633  -0.88334   0.46436 
 
 ITRead=  0  0  0  0  0  0  0  0  0  0  0  0  0  0  0
 MicOpt= -1 -1 -1 -1 -1 -1 -1 -1 -1 -1 -1 -1 -1 -1 -1
 NAtoms=     15 NQM=       15 NQMF=       0 NMMI=      0 NMMIF=      0
                NMic=       0 NMicF=      0.
                    Isotopes and Nuclear Properties:
 (Nuclear quadrupole moments (NQMom) in fm**2, nuclear magnetic moments (NMagM)
  in nuclear magnetons)

  Atom         1           2           3           4           5           6           7           8           9          10
 IAtWgt=          12          12          12          12          12          12          12           1           1           1
 AtmWgt=  12.0000000  12.0000000  12.0000000  12.0000000  12.0000000  12.0000000  12.0000000   1.0078250   1.0078250   1.0078250
 NucSpn=           0           0           0           0           0           0           0           1           1           1
 AtZEff=  -0.0000000  -0.0000000  -0.0000000  -0.0000000  -0.0000000  -0.0000000  -0.0000000  -0.0000000  -0.0000000  -0.0000000
 NQMom=    0.0000000   0.0000000   0.0000000   0.0000000   0.0000000   0.0000000   0.0000000   0.0000000   0.0000000   0.0000000
 NMagM=    0.0000000   0.0000000   0.0000000   0.0000000   0.0000000   0.0000000   0.0000000   2.7928460   2.7928460   2.7928460
 AtZNuc=   6.0000000   6.0000000   6.0000000   6.0000000   6.0000000   6.0000000   6.0000000   1.0000000   1.0000000   1.0000000

  Atom        11          12          13          14          15
 IAtWgt=           1           1           1           1           1
 AtmWgt=   1.0078250   1.0078250   1.0078250   1.0078250   1.0078250
 NucSpn=           1           1           1           1           1
 AtZEff=  -0.0000000  -0.0000000  -0.0000000  -0.0000000  -0.0000000
 NQMom=    0.0000000   0.0000000   0.0000000   0.0000000   0.0000000
 NMagM=    2.7928460   2.7928460   2.7928460   2.7928460   2.7928460
 AtZNuc=   1.0000000   1.0000000   1.0000000   1.0000000   1.0000000
 Leave Link  101 at Tue Jan 14 14:00:24 2025, MaxMem=   104857600 cpu:               0.0 elap:               0.0
 (Enter /sw/cluster/pub/apps//g16/l202.exe)
                          Input orientation:                          
 ---------------------------------------------------------------------
 Center     Atomic      Atomic             Coordinates (Angstroms)
 Number     Number       Type             X           Y           Z
 ---------------------------------------------------------------------
      1          6           0        0.910996    0.000000    0.004277
      2          6           0        0.193492    1.197301    0.007343
      3          6           0       -1.196622    1.200295    0.007343
      4          6           0       -1.897997    0.000000    0.006316
      5          6           0       -1.196622   -1.200295    0.007343
      6          6           0        0.193492   -1.197301    0.007343
      7          6           0        2.417262    0.000000   -0.028103
      8          1           0        0.730416    2.139190    0.012247
      9          1           0       -1.732189    2.141715    0.012007
     10          1           0       -2.980673    0.000000    0.009213
     11          1           0       -1.732189   -2.141715    0.012007
     12          1           0        0.730416   -2.139190    0.012247
     13          1           0        2.787559    0.000000   -1.057618
     14          1           0        2.826326    0.883343    0.464361
     15          1           0        2.826326   -0.883343    0.464361
 ---------------------------------------------------------------------
                    Distance matrix (angstroms):
                    1          2          3          4          5
     1  C    0.000000
     2  C    1.395834   0.000000
     3  C    2.425442   1.390117   0.000000
     4  C    2.808994   2.409949   1.390193   0.000000
     5  C    2.425442   2.771441   2.400590   1.390193   0.000000
     6  C    1.395834   2.394603   2.771441   2.409949   1.390117
     7  C    1.506613   2.525854   3.808165   4.315396   3.808165
     8  H    2.146814   1.084190   2.143601   3.388912   3.855601
     9  H    3.401975   2.144804   1.083110   2.148131   3.384655
    10  H    3.891673   3.392471   2.150244   1.082681   2.150244
    11  H    3.401975   3.854517   3.384655   2.148131   1.083110
    12  H    2.146814   3.379421   3.855601   3.388912   2.143601
    13  H    2.156180   3.049075   4.295177   4.804830   4.295177
    14  H    2.158810   2.690586   4.061211   4.827973   4.553518
    15  H    2.158810   3.386704   4.553518   4.827973   4.061211
                    6          7          8          9         10
     6  C    0.000000
     7  C    2.525854   0.000000
     8  H    3.379421   2.724557   0.000000
     9  H    3.854517   4.669743   2.462606   0.000000
    10  H    3.392471   5.398064   4.283495   2.479045   0.000000
    11  H    2.144804   4.669743   4.938682   4.283431   2.479045
    12  H    1.084190   2.724557   4.278381   4.938682   4.283495
    13  H    3.049075   1.094085   3.154772   5.114604   5.866058
    14  H    3.386704   1.090940   2.484834   4.750599   5.891409
    15  H    2.690586   1.090940   3.705800   5.489596   5.891409
                   11         12         13         14         15
    11  H    0.000000
    12  H    2.462606   0.000000
    13  H    5.114604   3.154772   0.000000
    14  H    5.489596   3.705800   1.760176   0.000000
    15  H    4.750599   2.484834   1.760176   1.766685   0.000000
 Symmetry turned off by external request.
 Stoichiometry    C7H8
 Framework group  CS[SG(C3H2),X(C4H6)]
 Deg. of freedom    22
 Full point group                 CS      NOp   2
 Rotational constants (GHZ):           5.5788412           2.5265524           1.7579210
 Leave Link  202 at Tue Jan 14 14:00:24 2025, MaxMem=   104857600 cpu:               0.0 elap:               0.0
 (Enter /sw/cluster/pub/apps//g16/l301.exe)
 Standard basis: def2TZVP (5D, 7F)
 Ernie: Thresh=  0.10000D-02 Tol=  0.10000D-05 Strict=F.
   265 basis functions,   421 primitive gaussians,   300 cartesian basis functions
    25 alpha electrons       25 beta electrons
       nuclear repulsion energy       269.6709574487 Hartrees.
 IExCor=  402 DFT=T Ex+Corr=B3LYP ExCW=0 ScaHFX=  0.200000
 ScaDFX=  0.800000  0.720000  1.000000  0.810000 ScalE2=  1.000000  1.000000
 IRadAn=      5 IRanWt=     -1 IRanGd=            0 ICorTp=0 IEmpDi=  4
 NAtoms=   15 NActive=   15 NUniq=   15 SFac= 1.00D+00 NAtFMM=   60 NAOKFM=F Big=F
 Integral buffers will be    131072 words long.
 Raffenetti 2 integral format.
 Two-electron integral symmetry is turned off.
 Leave Link  301 at Tue Jan 14 14:00:24 2025, MaxMem=   104857600 cpu:               0.0 elap:               0.0
 (Enter /sw/cluster/pub/apps//g16/l302.exe)
 NPDir=0 NMtPBC=     1 NCelOv=     1 NCel=       1 NClECP=     1 NCelD=      1
         NCelK=      1 NCelE2=     1 NClLst=     1 CellRange=     0.0.
 One-electron integrals computed using PRISM.
   1 Symmetry operations used in ECPInt.
 ECPInt:  NShTT=    5995 NPrTT=   17944 LenC2=    5920 LenP2D=   14580.
 LDataN:  DoStor=T MaxTD1= 6 Len=  172
 NBasis=   265 RedAO= T EigKep=  8.53D-06  NBF=   265
 NBsUse=   265 1.00D-06 EigRej= -1.00D+00 NBFU=   265
 Precomputing XC quadrature grid using
 IXCGrd= 4 IRadAn=           5 IRanWt=          -1 IRanGd=           0 AccXCQ= 0.00D+00.
 Generated NRdTot=       0 NPtTot=           0 NUsed=           0 NTot=          32
 NSgBfM=   299   299   299   299   299 MxSgAt=    15 MxSgA2=    15.
 Leave Link  302 at Tue Jan 14 14:00:24 2025, MaxMem=   104857600 cpu:               0.2 elap:               0.2
 (Enter /sw/cluster/pub/apps//g16/l303.exe)
 DipDrv:  MaxL=1.
 Leave Link  303 at Tue Jan 14 14:00:25 2025, MaxMem=   104857600 cpu:               0.0 elap:               0.0
 (Enter /sw/cluster/pub/apps//g16/l401.exe)
 ExpMin= 9.52D-02 ExpMax= 1.36D+04 ExpMxC= 4.63D+02 IAcc=3 IRadAn=         5 AccDes= 0.00D+00
 Harris functional with IExCor=  402 and IRadAn=       5 diagonalized for initial guess.
 HarFok:  IExCor=  402 AccDes= 0.00D+00 IRadAn=         5 IDoV= 1 UseB2=F ITyADJ=14
 ICtDFT=  3500011 ScaDFX=  1.000000  1.000000  1.000000  1.000000
 FoFCou: FMM=F IPFlag=           0 FMFlag=      100000 FMFlg1=           0
         NFxFlg=           0 DoJE=T BraDBF=F KetDBF=T FulRan=T
         wScrn=  0.000000 ICntrl=       500 IOpCl=  0 I1Cent=   200000004 NGrid=           0
         NMat0=    1 NMatS0=      1 NMatT0=    0 NMatD0=    1 NMtDS0=    0 NMtDT0=    0
 Symmetry not used in FoFCou.
 Harris En= -271.732369808729    
 JPrj=0 DoOrth=F DoCkMO=F.
 Leave Link  401 at Tue Jan 14 14:00:27 2025, MaxMem=   104857600 cpu:               2.2 elap:               2.2
 (Enter /sw/cluster/pub/apps//g16/l502.exe)
 Two-electron integral symmetry not used.
 Closed shell SCF:
 Using DIIS extrapolation, IDIIS=  1040.
 NGot=   104857600 LenX=   104673663 LenY=   104583222
 Requested convergence on RMS density matrix=1.00D-08 within 128 cycles.
 Requested convergence on MAX density matrix=1.00D-06.
 Requested convergence on             energy=1.00D-06.
 No special actions if energy rises.
 Fock matrices will be formed incrementally for  20 cycles.
 Integral accuracy reduced to 1.0D-05 until final iterations.

 Cycle   1  Pass 0  IDiag  1:
 FoFJK:  IHMeth= 1 ICntrl=       0 DoSepK=F KAlg= 0 I1Cent=           0 FoldK=F
 IRaf= 970000000 NMat=       1 IRICut=       1 DoRegI=T DoRafI=F ISym2E= 0 IDoP0=0 IntGTp=1.
 FoFCou: FMM=F IPFlag=           0 FMFlag=      100000 FMFlg1=           0
         NFxFlg=           0 DoJE=F BraDBF=F KetDBF=F FulRan=T
         wScrn=  0.000000 ICntrl=         0 IOpCl=  0 I1Cent=           0 NGrid=           0
         NMat0=    1 NMatS0=      1 NMatT0=    0 NMatD0=    1 NMtDS0=    0 NMtDT0=    0
 Symmetry not used in FoFCou.
 E= -271.439133673215    
 DIIS: error= 2.94D-02 at cycle   1 NSaved=   1.
 NSaved= 1 IEnMin= 1 EnMin= -271.439133673215     IErMin= 1 ErrMin= 2.94D-02
 ErrMax= 2.94D-02  0.00D+00 EMaxC= 1.00D-01 BMatC= 2.23D-01 BMatP= 2.23D-01
 IDIUse=3 WtCom= 7.06D-01 WtEn= 2.94D-01
 Coeff-Com:  0.100D+01
 Coeff-En:   0.100D+01
 Coeff:      0.100D+01
 Gap=     0.238 Goal=   None    Shift=    0.000
 GapD=    0.238 DampG=1.000 DampE=0.500 DampFc=0.5000 IDamp=-1.
 Damping current iteration by 5.00D-01
 RMSDP=3.49D-03 MaxDP=7.65D-02              OVMax= 1.84D-01

 Cycle   2  Pass 0  IDiag  1:
 RMSU=  1.68D-03    CP:  9.49D-01
 E= -271.539942359148     Delta-E=       -0.100808685933 Rises=F Damp=T
 DIIS: error= 6.93D-03 at cycle   2 NSaved=   2.
 NSaved= 2 IEnMin= 2 EnMin= -271.539942359148     IErMin= 2 ErrMin= 6.93D-03
 ErrMax= 6.93D-03  0.00D+00 EMaxC= 1.00D-01 BMatC= 1.06D-02 BMatP= 2.23D-01
 IDIUse=3 WtCom= 9.31D-01 WtEn= 6.93D-02
 Coeff-Com:  0.363D-01 0.964D+00
 Coeff-En:   0.111D+00 0.889D+00
 Coeff:      0.415D-01 0.959D+00
 Gap=     0.300 Goal=   None    Shift=    0.000
 RMSDP=1.01D-03 MaxDP=2.48D-02 DE=-1.01D-01 OVMax= 1.08D-01

 Cycle   3  Pass 0  IDiag  1:
 RMSU=  9.27D-04    CP:  9.40D-01  7.72D-01
 E= -271.665427489281     Delta-E=       -0.125485130133 Rises=F Damp=F
 DIIS: error= 6.08D-03 at cycle   3 NSaved=   3.
 NSaved= 3 IEnMin= 3 EnMin= -271.665427489281     IErMin= 3 ErrMin= 6.08D-03
 ErrMax= 6.08D-03  0.00D+00 EMaxC= 1.00D-01 BMatC= 3.27D-03 BMatP= 1.06D-02
 IDIUse=3 WtCom= 9.39D-01 WtEn= 6.08D-02
 Coeff-Com: -0.381D-01 0.317D+00 0.721D+00
 Coeff-En:   0.000D+00 0.000D+00 0.100D+01
 Coeff:     -0.358D-01 0.298D+00 0.738D+00
 Gap=     0.233 Goal=   None    Shift=    0.000
 RMSDP=2.36D-04 MaxDP=4.71D-03 DE=-1.25D-01 OVMax= 1.64D-02

 Cycle   4  Pass 0  IDiag  1:
 RMSU=  1.76D-04    CP:  9.37D-01  8.46D-01  9.01D-01
 E= -271.668231854985     Delta-E=       -0.002804365703 Rises=F Damp=F
 DIIS: error= 2.00D-03 at cycle   4 NSaved=   4.
 NSaved= 4 IEnMin= 4 EnMin= -271.668231854985     IErMin= 4 ErrMin= 2.00D-03
 ErrMax= 2.00D-03  0.00D+00 EMaxC= 1.00D-01 BMatC= 6.00D-04 BMatP= 3.27D-03
 IDIUse=3 WtCom= 9.80D-01 WtEn= 2.00D-02
 Coeff-Com: -0.214D-01 0.914D-01 0.353D+00 0.577D+00
 Coeff-En:   0.000D+00 0.000D+00 0.416D-01 0.958D+00
 Coeff:     -0.210D-01 0.896D-01 0.346D+00 0.585D+00
 Gap=     0.235 Goal=   None    Shift=    0.000
 RMSDP=8.03D-05 MaxDP=3.35D-03 DE=-2.80D-03 OVMax= 1.06D-02

 Cycle   5  Pass 0  IDiag  1:
 RMSU=  5.56D-05    CP:  9.37D-01  8.41D-01  9.40D-01  7.49D-01
 E= -271.668713697448     Delta-E=       -0.000481842463 Rises=F Damp=F
 DIIS: error= 7.30D-04 at cycle   5 NSaved=   5.
 NSaved= 5 IEnMin= 5 EnMin= -271.668713697448     IErMin= 5 ErrMin= 7.30D-04
 ErrMax= 7.30D-04  0.00D+00 EMaxC= 1.00D-01 BMatC= 8.51D-05 BMatP= 6.00D-04
 IDIUse=3 WtCom= 9.93D-01 WtEn= 7.30D-03
 Coeff-Com: -0.837D-02 0.208D-01 0.125D+00 0.329D+00 0.533D+00
 Coeff-En:   0.000D+00 0.000D+00 0.000D+00 0.914D-01 0.909D+00
 Coeff:     -0.831D-02 0.207D-01 0.124D+00 0.328D+00 0.536D+00
 Gap=     0.234 Goal=   None    Shift=    0.000
 RMSDP=3.19D-05 MaxDP=1.33D-03 DE=-4.82D-04 OVMax= 4.99D-03

 Cycle   6  Pass 0  IDiag  1:
 RMSU=  2.08D-05    CP:  9.37D-01  8.45D-01  9.45D-01  8.19D-01  6.59D-01
 E= -271.668787765318     Delta-E=       -0.000074067871 Rises=F Damp=F
 DIIS: error= 3.27D-04 at cycle   6 NSaved=   6.
 NSaved= 6 IEnMin= 6 EnMin= -271.668787765318     IErMin= 6 ErrMin= 3.27D-04
 ErrMax= 3.27D-04  0.00D+00 EMaxC= 1.00D-01 BMatC= 1.11D-05 BMatP= 8.51D-05
 IDIUse=3 WtCom= 9.97D-01 WtEn= 3.27D-03
 Coeff-Com: -0.352D-02 0.561D-02 0.510D-01 0.164D+00 0.343D+00 0.440D+00
 Coeff-En:   0.000D+00 0.000D+00 0.000D+00 0.000D+00 0.951D-01 0.905D+00
 Coeff:     -0.351D-02 0.559D-02 0.509D-01 0.164D+00 0.342D+00 0.441D+00
 Gap=     0.234 Goal=   None    Shift=    0.000
 RMSDP=1.10D-05 MaxDP=3.15D-04 DE=-7.41D-05 OVMax= 1.51D-03

 Cycle   7  Pass 0  IDiag  1:
 RMSU=  6.91D-06    CP:  9.37D-01  8.45D-01  9.48D-01  8.08D-01  7.40D-01
                    CP:  6.94D-01
 E= -271.668800083809     Delta-E=       -0.000012318491 Rises=F Damp=F
 DIIS: error= 3.49D-05 at cycle   7 NSaved=   7.
 NSaved= 7 IEnMin= 7 EnMin= -271.668800083809     IErMin= 7 ErrMin= 3.49D-05
 ErrMax= 3.49D-05  0.00D+00 EMaxC= 1.00D-01 BMatC= 1.35D-07 BMatP= 1.11D-05
 IDIUse=1 WtCom= 1.00D+00 WtEn= 0.00D+00
 Coeff-Com: -0.257D-03-0.233D-03 0.477D-02 0.216D-01 0.558D-01 0.139D+00
 Coeff-Com:  0.780D+00
 Coeff:     -0.257D-03-0.233D-03 0.477D-02 0.216D-01 0.558D-01 0.139D+00
 Coeff:      0.780D+00
 Gap=     0.234 Goal=   None    Shift=    0.000
 RMSDP=3.50D-06 MaxDP=7.08D-05 DE=-1.23D-05 OVMax= 1.68D-04

 Initial convergence to 1.0D-05 achieved.  Increase integral accuracy.
 Cycle   8  Pass 1  IDiag  1:
 E= -271.668794256483     Delta-E=        0.000005827327 Rises=F Damp=F
 DIIS: error= 9.20D-05 at cycle   1 NSaved=   1.
 NSaved= 1 IEnMin= 1 EnMin= -271.668794256483     IErMin= 1 ErrMin= 9.20D-05
 ErrMax= 9.20D-05  0.00D+00 EMaxC= 1.00D-01 BMatC= 6.62D-07 BMatP= 6.62D-07
 IDIUse=1 WtCom= 1.00D+00 WtEn= 0.00D+00
 Coeff-Com:  0.100D+01
 Coeff:      0.100D+01
 Gap=     0.234 Goal=   None    Shift=    0.000
 RMSDP=3.50D-06 MaxDP=7.08D-05 DE= 5.83D-06 OVMax= 9.01D-05

 Cycle   9  Pass 1  IDiag  1:
 RMSU=  6.78D-05    CP:  1.00D+00
 E= -271.668794428982     Delta-E=       -0.000000172499 Rises=F Damp=F
 DIIS: error= 1.73D-05 at cycle   2 NSaved=   2.
 NSaved= 2 IEnMin= 2 EnMin= -271.668794428982     IErMin= 2 ErrMin= 1.73D-05
 ErrMax= 1.73D-05  0.00D+00 EMaxC= 1.00D-01 BMatC= 3.30D-08 BMatP= 6.62D-07
 IDIUse=1 WtCom= 1.00D+00 WtEn= 0.00D+00
 Coeff-Com:  0.700D-01 0.930D+00
 Coeff:      0.700D-01 0.930D+00
 Gap=     0.234 Goal=   None    Shift=    0.000
 RMSDP=1.79D-06 MaxDP=3.81D-05 DE=-1.72D-07 OVMax= 1.14D-04

 Cycle  10  Pass 1  IDiag  1:
 RMSU=  1.15D-06    CP:  1.00D+00  1.02D+00
 E= -271.668794400321     Delta-E=        0.000000028661 Rises=F Damp=F
 DIIS: error= 2.22D-05 at cycle   3 NSaved=   3.
 NSaved= 3 IEnMin= 2 EnMin= -271.668794428982     IErMin= 2 ErrMin= 1.73D-05
 ErrMax= 2.22D-05  0.00D+00 EMaxC= 1.00D-01 BMatC= 6.21D-08 BMatP= 3.30D-08
 IDIUse=1 WtCom= 1.00D+00 WtEn= 0.00D+00
 Coeff-Com: -0.227D-02 0.579D+00 0.423D+00
 Coeff:     -0.227D-02 0.579D+00 0.423D+00
 Gap=     0.234 Goal=   None    Shift=    0.000
 RMSDP=6.17D-07 MaxDP=2.39D-05 DE= 2.87D-08 OVMax= 7.30D-05

 Cycle  11  Pass 1  IDiag  1:
 RMSU=  3.04D-07    CP:  1.00D+00  1.02D+00  5.44D-01
 E= -271.668794460226     Delta-E=       -0.000000059906 Rises=F Damp=F
 DIIS: error= 1.96D-06 at cycle   4 NSaved=   4.
 NSaved= 4 IEnMin= 4 EnMin= -271.668794460226     IErMin= 4 ErrMin= 1.96D-06
 ErrMax= 1.96D-06  0.00D+00 EMaxC= 1.00D-01 BMatC= 3.89D-10 BMatP= 3.30D-08
 IDIUse=1 WtCom= 1.00D+00 WtEn= 0.00D+00
 Coeff-Com: -0.173D-02 0.359D+00 0.265D+00 0.378D+00
 Coeff:     -0.173D-02 0.359D+00 0.265D+00 0.378D+00
 Gap=     0.234 Goal=   None    Shift=    0.000
 RMSDP=6.45D-08 MaxDP=2.22D-06 DE=-5.99D-08 OVMax= 9.74D-06

 Cycle  12  Pass 1  IDiag  1:
 RMSU=  6.04D-08    CP:  1.00D+00  1.02D+00  5.54D-01  9.43D-01
 E= -271.668794460646     Delta-E=       -0.000000000419 Rises=F Damp=F
 DIIS: error= 3.24D-07 at cycle   5 NSaved=   5.
 NSaved= 5 IEnMin= 5 EnMin= -271.668794460646     IErMin= 5 ErrMin= 3.24D-07
 ErrMax= 3.24D-07  0.00D+00 EMaxC= 1.00D-01 BMatC= 8.83D-12 BMatP= 3.89D-10
 IDIUse=1 WtCom= 1.00D+00 WtEn= 0.00D+00
 Coeff-Com: -0.540D-03 0.102D+00 0.758D-01 0.175D+00 0.648D+00
 Coeff:     -0.540D-03 0.102D+00 0.758D-01 0.175D+00 0.648D+00
 Gap=     0.234 Goal=   None    Shift=    0.000
 RMSDP=1.61D-08 MaxDP=4.08D-07 DE=-4.19D-10 OVMax= 1.47D-06

 Cycle  13  Pass 1  IDiag  1:
 RMSU=  1.03D-08    CP:  1.00D+00  1.02D+00  5.55D-01  9.67D-01  9.54D-01
 E= -271.668794460655     Delta-E=       -0.000000000010 Rises=F Damp=F
 DIIS: error= 3.64D-08 at cycle   6 NSaved=   6.
 NSaved= 6 IEnMin= 6 EnMin= -271.668794460655     IErMin= 6 ErrMin= 3.64D-08
 ErrMax= 3.64D-08  0.00D+00 EMaxC= 1.00D-01 BMatC= 1.19D-13 BMatP= 8.83D-12
 IDIUse=1 WtCom= 1.00D+00 WtEn= 0.00D+00
 Coeff-Com: -0.364D-04 0.548D-02 0.431D-02 0.218D-01 0.146D+00 0.823D+00
 Coeff:     -0.364D-04 0.548D-02 0.431D-02 0.218D-01 0.146D+00 0.823D+00
 Gap=     0.234 Goal=   None    Shift=    0.000
 RMSDP=5.83D-09 MaxDP=1.53D-07 DE=-9.78D-12 OVMax= 1.34D-07

 SCF Done:  E(RB3LYP) =  -271.668794461     A.U. after   13 cycles
            NFock= 13  Conv=0.58D-08     -V/T= 2.0054
 KE= 2.702066982582D+02 PE=-1.168806898240D+03 EE= 3.572604480727D+02
 Leave Link  502 at Tue Jan 14 14:01:53 2025, MaxMem=   104857600 cpu:              86.2 elap:              86.3
 (Enter /sw/cluster/pub/apps//g16/l601.exe)
 Copying SCF densities to generalized density rwf, IOpCl= 0 IROHF=0.

 **********************************************************************

            Population analysis using the SCF density.

 **********************************************************************

 Alpha  occ. eigenvalues --  -10.18323 -10.17344 -10.17338 -10.17120 -10.17092
 Alpha  occ. eigenvalues --  -10.17088 -10.16909  -0.85900  -0.77382  -0.74603
 Alpha  occ. eigenvalues --   -0.68742  -0.60666  -0.58590  -0.51407  -0.46321
 Alpha  occ. eigenvalues --   -0.45549  -0.42387  -0.42161  -0.41092  -0.38828
 Alpha  occ. eigenvalues --   -0.35964  -0.34458  -0.34129  -0.25619  -0.24715
 Alpha virt. eigenvalues --   -0.01295  -0.01006   0.04333   0.05783   0.07425
 Alpha virt. eigenvalues --    0.09203   0.10537   0.10594   0.12374   0.12944
 Alpha virt. eigenvalues --    0.14281   0.16048   0.16593   0.18715   0.18749
 Alpha virt. eigenvalues --    0.21838   0.22788   0.23255   0.23977   0.25243
 Alpha virt. eigenvalues --    0.26077   0.27437   0.27741   0.30976   0.31262
 Alpha virt. eigenvalues --    0.31750   0.34717   0.35365   0.35967   0.36354
 Alpha virt. eigenvalues --    0.37077   0.40064   0.41360   0.41691   0.42328
 Alpha virt. eigenvalues --    0.43340   0.44168   0.45082   0.45268   0.47927
 Alpha virt. eigenvalues --    0.49367   0.49742   0.50200   0.51562   0.51587
 Alpha virt. eigenvalues --    0.55759   0.57041   0.59249   0.64761   0.65349
 Alpha virt. eigenvalues --    0.67002   0.67492   0.70067   0.71278   0.74974
 Alpha virt. eigenvalues --    0.75479   0.78533   0.80688   0.81676   0.82820
 Alpha virt. eigenvalues --    0.86174   0.86455   0.89271   0.91803   0.93265
 Alpha virt. eigenvalues --    0.95869   0.99291   1.00086   1.02225   1.03576
 Alpha virt. eigenvalues --    1.06526   1.10168   1.11328   1.12187   1.19317
 Alpha virt. eigenvalues --    1.19556   1.22450   1.22483   1.23596   1.26086
 Alpha virt. eigenvalues --    1.26331   1.29058   1.30055   1.30910   1.38495
 Alpha virt. eigenvalues --    1.40554   1.42312   1.45588   1.45894   1.48268
 Alpha virt. eigenvalues --    1.50760   1.51711   1.52829   1.56046   1.56670
 Alpha virt. eigenvalues --    1.58885   1.60237   1.62373   1.62961   1.65994
 Alpha virt. eigenvalues --    1.67614   1.68850   1.69105   1.71583   1.72760
 Alpha virt. eigenvalues --    1.74290   1.84660   1.87488   1.90463   1.92398
 Alpha virt. eigenvalues --    1.95475   1.98509   1.99621   2.04017   2.06246
 Alpha virt. eigenvalues --    2.07124   2.08402   2.13034   2.15547   2.17233
 Alpha virt. eigenvalues --    2.18300   2.20245   2.23176   2.24431   2.29937
 Alpha virt. eigenvalues --    2.35899   2.36417   2.37270   2.44558   2.47667
 Alpha virt. eigenvalues --    2.50489   2.50821   2.52111   2.54414   2.54578
 Alpha virt. eigenvalues --    2.59820   2.61147   2.63403   2.64190   2.66277
 Alpha virt. eigenvalues --    2.66663   2.67785   2.69317   2.69520   2.74387
 Alpha virt. eigenvalues --    2.76556   2.78021   2.78033   2.78879   2.81734
 Alpha virt. eigenvalues --    2.83164   2.84367   2.84806   2.88709   2.90338
 Alpha virt. eigenvalues --    2.94170   2.97933   2.99082   3.02170   3.02304
 Alpha virt. eigenvalues --    3.03075   3.08514   3.10034   3.13277   3.14034
 Alpha virt. eigenvalues --    3.15130   3.15972   3.17755   3.18212   3.18952
 Alpha virt. eigenvalues --    3.21149   3.21170   3.25057   3.28346   3.30441
 Alpha virt. eigenvalues --    3.30955   3.32884   3.34706   3.35587   3.38731
 Alpha virt. eigenvalues --    3.39691   3.40297   3.42643   3.44850   3.47376
 Alpha virt. eigenvalues --    3.49546   3.50269   3.54126   3.57351   3.58385
 Alpha virt. eigenvalues --    3.64306   3.67715   3.68402   3.71444   3.76396
 Alpha virt. eigenvalues --    3.77561   3.82581   3.86275   3.89127   3.89837
 Alpha virt. eigenvalues --    3.93430   4.01585   4.05683   4.09656   4.10383
 Alpha virt. eigenvalues --    4.12979   4.16291   4.17838   4.20716   4.21487
 Alpha virt. eigenvalues --    4.24966   4.28037   4.30884   4.30990   4.32429
 Alpha virt. eigenvalues --    4.41971   4.46806   4.51935   4.57676   4.67262
 Alpha virt. eigenvalues --    4.68130   4.70071   4.72081   4.87009   4.87851
 Alpha virt. eigenvalues --    4.95412   5.04956   5.21360   5.22969   5.35879
 Alpha virt. eigenvalues --    5.39328   5.45339   5.64195  21.90890  22.38004
 Alpha virt. eigenvalues --   22.58381  22.59816  22.69873  22.79014  23.19488
          Condensed to atoms (all electrons):
               1          2          3          4          5          6
     1  C    4.919049   0.490732  -0.027631  -0.059433  -0.027631   0.490732
     2  C    0.490732   4.978533   0.493015  -0.017169  -0.050690  -0.034999
     3  C   -0.027631   0.493015   4.869856   0.494947  -0.032028  -0.050690
     4  C   -0.059433  -0.017169   0.494947   4.891990   0.494947  -0.017169
     5  C   -0.027631  -0.050690  -0.032028   0.494947   4.869856   0.493015
     6  C    0.490732  -0.034999  -0.050690  -0.017169   0.493015   4.978533
     7  C    0.290732  -0.069297   0.010682  -0.002251   0.010682  -0.069297
     8  H   -0.057882   0.425759  -0.047575   0.009322  -0.002007   0.011041
     9  H    0.010113  -0.051415   0.423591  -0.048923   0.009103  -0.001676
    10  H   -0.000219   0.007436  -0.045333   0.417836  -0.045333   0.007436
    11  H    0.010113  -0.001676   0.009103  -0.048923   0.423591  -0.051415
    12  H   -0.057882   0.011041  -0.002007   0.009322  -0.047575   0.425759
    13  H   -0.027661  -0.002896  -0.000590   0.000312  -0.000590  -0.002896
    14  H   -0.057865  -0.003579   0.001144   0.000091  -0.000502   0.004843
    15  H   -0.057865   0.004843  -0.000502   0.000091   0.001144  -0.003579
               7          8          9         10         11         12
     1  C    0.290732  -0.057882   0.010113  -0.000219   0.010113  -0.057882
     2  C   -0.069297   0.425759  -0.051415   0.007436  -0.001676   0.011041
     3  C    0.010682  -0.047575   0.423591  -0.045333   0.009103  -0.002007
     4  C   -0.002251   0.009322  -0.048923   0.417836  -0.048923   0.009322
     5  C    0.010682  -0.002007   0.009103  -0.045333   0.423591  -0.047575
     6  C   -0.069297   0.011041  -0.001676   0.007436  -0.051415   0.425759
     7  C    4.967897  -0.007521  -0.000404   0.000135  -0.000404  -0.007521
     8  H   -0.007521   0.573117  -0.007600  -0.000332   0.000094  -0.000298
     9  H   -0.000404  -0.007600   0.568526  -0.006880  -0.000327   0.000094
    10  H    0.000135  -0.000332  -0.006880   0.565763  -0.006880  -0.000332
    11  H   -0.000404   0.000094  -0.000327  -0.006880   0.568526  -0.007600
    12  H   -0.007521  -0.000298   0.000094  -0.000332  -0.007600   0.573117
    13  H    0.385214   0.000637   0.000014  -0.000003   0.000014   0.000637
    14  H    0.424986   0.002582  -0.000040  -0.000004   0.000018  -0.000043
    15  H    0.424986  -0.000043   0.000018  -0.000004  -0.000040   0.002582
              13         14         15
     1  C   -0.027661  -0.057865  -0.057865
     2  C   -0.002896  -0.003579   0.004843
     3  C   -0.000590   0.001144  -0.000502
     4  C    0.000312   0.000091   0.000091
     5  C   -0.000590  -0.000502   0.001144
     6  C   -0.002896   0.004843  -0.003579
     7  C    0.385214   0.424986   0.424986
     8  H    0.000637   0.002582  -0.000043
     9  H    0.000014  -0.000040   0.000018
    10  H   -0.000003  -0.000004  -0.000004
    11  H    0.000014   0.000018  -0.000040
    12  H    0.000637  -0.000043   0.002582
    13  H    0.586793  -0.030296  -0.030296
    14  H   -0.030296   0.568757  -0.025546
    15  H   -0.030296  -0.025546   0.568757
 Mulliken charges:
               1
     1  C    0.162596
     2  C   -0.179638
     3  C   -0.095981
     4  C   -0.124991
     5  C   -0.095981
     6  C   -0.179638
     7  C   -0.358620
     8  H    0.100706
     9  H    0.105806
    10  H    0.106713
    11  H    0.105806
    12  H    0.100706
    13  H    0.121609
    14  H    0.115455
    15  H    0.115455
 Sum of Mulliken charges =  -0.00000
 Mulliken charges with hydrogens summed into heavy atoms:
               1
     1  C    0.162596
     2  C   -0.078933
     3  C    0.009824
     4  C   -0.018278
     5  C    0.009824
     6  C   -0.078933
     7  C   -0.006101
 Electronic spatial extent (au):  <R**2>=            716.8116
 Charge=             -0.0000 electrons
 Dipole moment (field-independent basis, Debye):
    X=              0.3697    Y=             -0.0000    Z=             -0.0340  Tot=              0.3712
 Quadrupole moment (field-independent basis, Debye-Ang):
   XX=            -38.7747   YY=            -39.0854   ZZ=            -46.1068
   XY=             -0.0000   XZ=             -0.0775   YZ=             -0.0000
 Traceless Quadrupole moment (field-independent basis, Debye-Ang):
   XX=              2.5476   YY=              2.2369   ZZ=             -4.7844
   XY=             -0.0000   XZ=             -0.0775   YZ=             -0.0000
 Octapole moment (field-independent basis, Debye-Ang**2):
  XXX=             -4.4729  YYY=             -0.0000  ZZZ=             -0.7773  XYY=             -0.9670
  XXY=             -0.0000  XXZ=              0.0182  XZZ=              3.7309  YZZ=              0.0000
  YYZ=              0.6351  XYZ=             -0.0000
 Hexadecapole moment (field-independent basis, Debye-Ang**3):
 XXXX=           -617.2737 YYYY=           -290.5205 ZZZZ=            -61.3772 XXXY=              0.0000
 XXXZ=              2.3971 YYYX=             -0.0000 YYYZ=             -0.0000 ZZZX=              0.4776
 ZZZY=             -0.0000 XXYY=           -148.1118 XXZZ=           -121.1022 YYZZ=            -68.6150
 XXYZ=             -0.0000 YYXZ=              2.3874 ZZXY=             -0.0000
 N-N= 2.696709574487D+02 E-N=-1.168806892307D+03  KE= 2.702066982582D+02
 No NMR shielding tensors so no spin-rotation constants.
 Leave Link  601 at Tue Jan 14 14:01:53 2025, MaxMem=   104857600 cpu:               0.1 elap:               0.1
 (Enter /sw/cluster/pub/apps//g16/l9999.exe)
 1\1\GINC-N02\SP\RB3LYP\def2TZVP\C7H8\UNKNOWN\14-Jan-2025\0\\#P B3LYP/d
 ef2tzvp nosymm Density=Current\\Single-Point\\0,1\C,0,0.91099631,0.,0.
 00427725\C,0,0.19349167,1.19730125,0.007343\C,0,-1.19662177,1.20029486
 ,0.007343\C,0,-1.89799658,0.,0.00631594\C,0,-1.19662177,-1.20029486,0.
 007343\C,0,0.19349167,-1.19730125,0.007343\C,0,2.4172618,0.,-0.0281030
 2\H,0,0.73041592,2.13919046,0.01224741\H,0,-1.73218916,2.1417153,0.012
 00744\H,0,-2.98067333,0.,0.00921256\H,0,-1.73218916,-2.1417153,0.01200
 744\H,0,0.73041592,-2.13919046,0.01224741\H,0,2.78755937,0.,-1.0576181
 3\H,0,2.82632628,0.88334269,0.46436137\H,0,2.82632628,-0.88334269,0.46
 436137\\Version=ES64L-G16RevA.03\HF=-271.6687945\RMSD=5.825e-09\Dipole
 =0.1454373,0.,-0.0133644\Quadrupole=1.8940548,1.6630606,-3.5571154,0.,
 -0.0575974,0.\PG=CS [SG(C3H2),X(C4H6)]\\@


 YOU SHOULDN'T LET PEOPLE DRIVE YOU CRAZY
 WHEN YOU KNOW IT'S WITHIN WALKING DISTANCE.
 Job cpu time:       0 days  0 hours  1 minutes 28.7 seconds.
 Elapsed time:       0 days  0 hours  1 minutes 28.9 seconds.
 File lengths (MBytes):  RWF=     43 Int=      0 D2E=      0 Chk=      5 Scr=      1
 Normal termination of Gaussian 16 at Tue Jan 14 14:01:53 2025.
