Single-Point                                                            
SP        RB3LYP                                                      def2TZVP            
Number of atoms                            I               15
Info1-9                                    I   N=           9
          24          22           0           0           0         110
           1          18        -502
Full Title                                 C   N=           1
Single-Point
Route                                      C   N=           4
#P B3LYP/def2tzvp nosymm Density=Current        
Charge                                     I                1
Multiplicity                               I                1
Number of electrons                        I               50
Number of alpha electrons                  I               25
Number of beta electrons                   I               25
Number of basis functions                  I              265
Number of independent functions            I              265
Number of point charges in /Mol/           I                0
Number of translation vectors              I                0
Atomic numbers                             I   N=          15
           6           6           6           6           6           6
           1           1           1           1           1           7
           1           1           1
Nuclear charges                            R   N=          15
  6.00000000E+00  6.00000000E+00  6.00000000E+00  6.00000000E+00  6.00000000E+00
  6.00000000E+00  1.00000000E+00  1.00000000E+00  1.00000000E+00  1.00000000E+00
  1.00000000E+00  7.00000000E+00  1.00000000E+00  1.00000000E+00  1.00000000E+00
Current cartesian coordinates              R   N=          45
  3.61460577E+00  0.00000000E+00  1.12211937E-02  2.31102167E+00  2.28212397E+00
  2.84025837E-03 -3.16156850E-01  2.30103068E+00 -1.08375793E-02 -1.55743101E+00
  0.00000000E+00 -1.68790337E-02 -3.16156850E-01 -2.30103068E+00 -1.08375793E-02
  2.31102167E+00 -2.28212397E+00  2.84025837E-03  5.65862236E+00  0.00000000E+00
  1.74931947E-02  3.32979570E+00  4.05352112E+00  8.01243877E-04 -1.34088541E+00
  4.07405110E+00 -1.77558667E-02 -1.34088541E+00 -4.07405110E+00 -1.77558667E-02
  3.32979570E+00 -4.05352112E+00  8.01243877E-04 -4.38037004E+00  0.00000000E+00
  1.45867960E-02 -5.08494876E+00 -1.55920169E+00 -8.87755539E-01 -5.08539473E+00
 -6.23609621E-05  1.81962106E+00 -5.08494498E+00  1.55926783E+00 -8.87644045E-01
Number of symbols in /Mol/                 I                0
Force Field                                I                0
Atom Types                                 C   N=          15
                                                            
                                                            
                                                            
Int Atom Types                             I   N=          15
           0           0           0           0           0           0
           0           0           0           0           0           0
           0           0           0
MM charges                                 R   N=          15
  0.00000000E+00  0.00000000E+00  0.00000000E+00  0.00000000E+00  0.00000000E+00
  0.00000000E+00  0.00000000E+00  0.00000000E+00  0.00000000E+00  0.00000000E+00
  0.00000000E+00  0.00000000E+00  0.00000000E+00  0.00000000E+00  0.00000000E+00
Integer atomic weights                     I   N=          15
          12          12          12          12          12          12
           1           1           1           1           1          14
           1           1           1
Real atomic weights                        R   N=          15
  1.20000000E+01  1.20000000E+01  1.20000000E+01  1.20000000E+01  1.20000000E+01
  1.20000000E+01  1.00782504E+00  1.00782504E+00  1.00782504E+00  1.00782504E+00
  1.00782504E+00  1.40030740E+01  1.00782504E+00  1.00782504E+00  1.00782504E+00
Atom fragment info                         I   N=          15
           0           0           0           0           0           0
           0           0           0           0           0           0
           0           0           0
Atom residue num                           I   N=          15
           0           0           0           0           0           0
           0           0           0           0           0           0
           0           0           0
Nuclear spins                              I   N=          15
           0           0           0           0           0           0
           1           1           1           1           1           2
           1           1           1
Nuclear ZEff                               R   N=          15
 -3.60000000E+00 -3.60000000E+00 -3.60000000E+00 -3.60000000E+00 -3.60000000E+00
 -3.60000000E+00 -1.00000000E+00 -1.00000000E+00 -1.00000000E+00 -1.00000000E+00
 -1.00000000E+00 -4.55000000E+00 -1.00000000E+00 -1.00000000E+00 -1.00000000E+00
Nuclear ZNuc                               R   N=          15
  6.00000000E+00  6.00000000E+00  6.00000000E+00  6.00000000E+00  6.00000000E+00
  6.00000000E+00  1.00000000E+00  1.00000000E+00  1.00000000E+00  1.00000000E+00
  1.00000000E+00  7.00000000E+00  1.00000000E+00  1.00000000E+00  1.00000000E+00
Nuclear QMom                               R   N=          15
  0.00000000E+00  0.00000000E+00  0.00000000E+00  0.00000000E+00  0.00000000E+00
  0.00000000E+00  0.00000000E+00  0.00000000E+00  0.00000000E+00  0.00000000E+00
  0.00000000E+00  2.04400000E+00  0.00000000E+00  0.00000000E+00  0.00000000E+00
Nuclear GFac                               R   N=          15
  0.00000000E+00  0.00000000E+00  0.00000000E+00  0.00000000E+00  0.00000000E+00
  0.00000000E+00  2.79284600E+00  2.79284600E+00  2.79284600E+00  2.79284600E+00
  2.79284600E+00  4.03761000E-01  2.79284600E+00  2.79284600E+00  2.79284600E+00
MicOpt                                     I   N=          15
          -1          -1          -1          -1          -1          -1
          -1          -1          -1          -1          -1          -1
          -1          -1          -1
Number of residues                         I                0
Number of secondary structures             I                0
Number of contracted shells                I              109
Number of primitive shells                 I              188
Pure/Cartesian d shells                    I                0
Pure/Cartesian f shells                    I                0
Highest angular momentum                   I                3
Largest degree of contraction              I                6
Shell types                                I   N=         109
           0           0           0           0           0           1
           1           1          -2          -2          -3           0
           0           0           0           0           1           1
           1          -2          -2          -3           0           0
           0           0           0           1           1           1
          -2          -2          -3           0           0           0
           0           0           1           1           1          -2
          -2          -3           0           0           0           0
           0           1           1           1          -2          -2
          -3           0           0           0           0           0
           1           1           1          -2          -2          -3
           0           0           0           1           0           0
           0           1           0           0           0           1
           0           0           0           1           0           0
           0           1           0           0           0           0
           0           1           1           1          -2          -2
          -3           0           0           0           1           0
           0           0           1           0           0           0
           1
Number of primitives per shell             I   N=         109
           6           2           1           1           1           4
           1           1           1           1           1           6
           2           1           1           1           4           1
           1           1           1           1           6           2
           1           1           1           4           1           1
           1           1           1           6           2           1
           1           1           4           1           1           1
           1           1           6           2           1           1
           1           4           1           1           1           1
           1           6           2           1           1           1
           4           1           1           1           1           1
           3           1           1           1           3           1
           1           1           3           1           1           1
           3           1           1           1           3           1
           1           1           6           2           1           1
           1           4           1           1           1           1
           1           3           1           1           1           3
           1           1           1           3           1           1
           1
Shell to atom map                          I   N=         109
           1           1           1           1           1           1
           1           1           1           1           1           2
           2           2           2           2           2           2
           2           2           2           2           3           3
           3           3           3           3           3           3
           3           3           3           4           4           4
           4           4           4           4           4           4
           4           4           5           5           5           5
           5           5           5           5           5           5
           5           6           6           6           6           6
           6           6           6           6           6           6
           7           7           7           7           8           8
           8           8           9           9           9           9
          10          10          10          10          11          11
          11          11          12          12          12          12
          12          12          12          12          12          12
          12          13          13          13          13          14
          14          14          14          15          15          15
          15
Primitive exponents                        R   N=         188
  1.35753497E+04  2.03523337E+03  4.63225624E+02  1.31200196E+02  4.28530159E+01
  1.55841858E+01  6.20671385E+00  2.57648965E+00  5.76963394E-01  2.29728314E-01
  9.51644400E-02  3.46972322E+01  7.95826228E+00  2.37808269E+00  8.14332082E-01
  2.88875473E-01  1.00568237E-01  1.09700000E+00  3.18000000E-01  7.61000000E-01
  1.35753497E+04  2.03523337E+03  4.63225624E+02  1.31200196E+02  4.28530159E+01
  1.55841858E+01  6.20671385E+00  2.57648965E+00  5.76963394E-01  2.29728314E-01
  9.51644400E-02  3.46972322E+01  7.95826228E+00  2.37808269E+00  8.14332082E-01
  2.88875473E-01  1.00568237E-01  1.09700000E+00  3.18000000E-01  7.61000000E-01
  1.35753497E+04  2.03523337E+03  4.63225624E+02  1.31200196E+02  4.28530159E+01
  1.55841858E+01  6.20671385E+00  2.57648965E+00  5.76963394E-01  2.29728314E-01
  9.51644400E-02  3.46972322E+01  7.95826228E+00  2.37808269E+00  8.14332082E-01
  2.88875473E-01  1.00568237E-01  1.09700000E+00  3.18000000E-01  7.61000000E-01
  1.35753497E+04  2.03523337E+03  4.63225624E+02  1.31200196E+02  4.28530159E+01
  1.55841858E+01  6.20671385E+00  2.57648965E+00  5.76963394E-01  2.29728314E-01
  9.51644400E-02  3.46972322E+01  7.95826228E+00  2.37808269E+00  8.14332082E-01
  2.88875473E-01  1.00568237E-01  1.09700000E+00  3.18000000E-01  7.61000000E-01
  1.35753497E+04  2.03523337E+03  4.63225624E+02  1.31200196E+02  4.28530159E+01
  1.55841858E+01  6.20671385E+00  2.57648965E+00  5.76963394E-01  2.29728314E-01
  9.51644400E-02  3.46972322E+01  7.95826228E+00  2.37808269E+00  8.14332082E-01
  2.88875473E-01  1.00568237E-01  1.09700000E+00  3.18000000E-01  7.61000000E-01
  1.35753497E+04  2.03523337E+03  4.63225624E+02  1.31200196E+02  4.28530159E+01
  1.55841858E+01  6.20671385E+00  2.57648965E+00  5.76963394E-01  2.29728314E-01
  9.51644400E-02  3.46972322E+01  7.95826228E+00  2.37808269E+00  8.14332082E-01
  2.88875473E-01  1.00568237E-01  1.09700000E+00  3.18000000E-01  7.61000000E-01
  3.40613410E+01  5.12357460E+00  1.16466260E+00  3.27230410E-01  1.03072410E-01
  8.00000000E-01  3.40613410E+01  5.12357460E+00  1.16466260E+00  3.27230410E-01
  1.03072410E-01  8.00000000E-01  3.40613410E+01  5.12357460E+00  1.16466260E+00
  3.27230410E-01  1.03072410E-01  8.00000000E-01  3.40613410E+01  5.12357460E+00
  1.16466260E+00  3.27230410E-01  1.03072410E-01  8.00000000E-01  3.40613410E+01
  5.12357460E+00  1.16466260E+00  3.27230410E-01  1.03072410E-01  8.00000000E-01
  1.97308006E+04  2.95789587E+03  6.73221336E+02  1.90682495E+02  6.22954419E+01
  2.26541612E+01  8.97914774E+00  3.68630024E+00  8.46600768E-01  3.36471338E-01
  1.36476537E-01  4.92003805E+01  1.13467905E+01  3.42739724E+00  1.17855251E+00
  4.16422050E-01  1.42608260E-01  1.65400000E+00  4.69000000E-01  1.09300000E+00
  3.40613410E+01  5.12357460E+00  1.16466260E+00  3.27230410E-01  1.03072410E-01
  8.00000000E-01  3.40613410E+01  5.12357460E+00  1.16466260E+00  3.27230410E-01
  1.03072410E-01  8.00000000E-01  3.40613410E+01  5.12357460E+00  1.16466260E+00
  3.27230410E-01  1.03072410E-01  8.00000000E-01
Contraction coefficients                   R   N=         188
  6.06455036E-04  4.69790889E-03  2.43324776E-02  9.73999683E-02  3.01955843E-01
  6.62336091E-01  6.55953085E-01  3.75856333E-01  1.00000000E+00  1.00000000E+00
  1.00000000E+00  1.13272200E-02  7.61696592E-02  3.01922522E-01  7.27850273E-01
  1.00000000E+00  1.00000000E+00  1.00000000E+00  1.00000000E+00  1.00000000E+00
  6.06455036E-04  4.69790889E-03  2.43324776E-02  9.73999683E-02  3.01955843E-01
  6.62336091E-01  6.55953085E-01  3.75856333E-01  1.00000000E+00  1.00000000E+00
  1.00000000E+00  1.13272200E-02  7.61696592E-02  3.01922522E-01  7.27850273E-01
  1.00000000E+00  1.00000000E+00  1.00000000E+00  1.00000000E+00  1.00000000E+00
  6.06455036E-04  4.69790889E-03  2.43324776E-02  9.73999683E-02  3.01955843E-01
  6.62336091E-01  6.55953085E-01  3.75856333E-01  1.00000000E+00  1.00000000E+00
  1.00000000E+00  1.13272200E-02  7.61696592E-02  3.01922522E-01  7.27850273E-01
  1.00000000E+00  1.00000000E+00  1.00000000E+00  1.00000000E+00  1.00000000E+00
  6.06455036E-04  4.69790889E-03  2.43324776E-02  9.73999683E-02  3.01955843E-01
  6.62336091E-01  6.55953085E-01  3.75856333E-01  1.00000000E+00  1.00000000E+00
  1.00000000E+00  1.13272200E-02  7.61696592E-02  3.01922522E-01  7.27850273E-01
  1.00000000E+00  1.00000000E+00  1.00000000E+00  1.00000000E+00  1.00000000E+00
  6.06455036E-04  4.69790889E-03  2.43324776E-02  9.73999683E-02  3.01955843E-01
  6.62336091E-01  6.55953085E-01  3.75856333E-01  1.00000000E+00  1.00000000E+00
  1.00000000E+00  1.13272200E-02  7.61696592E-02  3.01922522E-01  7.27850273E-01
  1.00000000E+00  1.00000000E+00  1.00000000E+00  1.00000000E+00  1.00000000E+00
  6.06455036E-04  4.69790889E-03  2.43324776E-02  9.73999683E-02  3.01955843E-01
  6.62336091E-01  6.55953085E-01  3.75856333E-01  1.00000000E+00  1.00000000E+00
  1.00000000E+00  1.13272200E-02  7.61696592E-02  3.01922522E-01  7.27850273E-01
  1.00000000E+00  1.00000000E+00  1.00000000E+00  1.00000000E+00  1.00000000E+00
  2.54393072E-02  1.90085949E-01  8.52441130E-01  1.00000000E+00  1.00000000E+00
  1.00000000E+00  2.54393072E-02  1.90085949E-01  8.52441130E-01  1.00000000E+00
  1.00000000E+00  1.00000000E+00  2.54393072E-02  1.90085949E-01  8.52441130E-01
  1.00000000E+00  1.00000000E+00  1.00000000E+00  2.54393072E-02  1.90085949E-01
  8.52441130E-01  1.00000000E+00  1.00000000E+00  1.00000000E+00  2.54393072E-02
  1.90085949E-01  8.52441130E-01  1.00000000E+00  1.00000000E+00  1.00000000E+00
  5.86264026E-04  4.54288206E-03  2.35584135E-02  9.47091933E-02  2.97197849E-01
  6.69162469E-01  6.45966836E-01  3.87005744E-01  1.00000000E+00  1.00000000E+00
  1.00000000E+00  1.14488251E-02  7.84223380E-02  3.08180947E-01  7.20271964E-01
  1.00000000E+00  1.00000000E+00  1.00000000E+00  1.00000000E+00  1.00000000E+00
  2.54393072E-02  1.90085949E-01  8.52441130E-01  1.00000000E+00  1.00000000E+00
  1.00000000E+00  2.54393072E-02  1.90085949E-01  8.52441130E-01  1.00000000E+00
  1.00000000E+00  1.00000000E+00  2.54393072E-02  1.90085949E-01  8.52441130E-01
  1.00000000E+00  1.00000000E+00  1.00000000E+00
Coordinates of each shell                  R   N=         327
  3.61460577E+00  0.00000000E+00  1.12211937E-02  3.61460577E+00  0.00000000E+00
  1.12211937E-02  3.61460577E+00  0.00000000E+00  1.12211937E-02  3.61460577E+00
  0.00000000E+00  1.12211937E-02  3.61460577E+00  0.00000000E+00  1.12211937E-02
  3.61460577E+00  0.00000000E+00  1.12211937E-02  3.61460577E+00  0.00000000E+00
  1.12211937E-02  3.61460577E+00  0.00000000E+00  1.12211937E-02  3.61460577E+00
  0.00000000E+00  1.12211937E-02  3.61460577E+00  0.00000000E+00  1.12211937E-02
  3.61460577E+00  0.00000000E+00  1.12211937E-02  2.31102167E+00  2.28212397E+00
  2.84025837E-03  2.31102167E+00  2.28212397E+00  2.84025837E-03  2.31102167E+00
  2.28212397E+00  2.84025837E-03  2.31102167E+00  2.28212397E+00  2.84025837E-03
  2.31102167E+00  2.28212397E+00  2.84025837E-03  2.31102167E+00  2.28212397E+00
  2.84025837E-03  2.31102167E+00  2.28212397E+00  2.84025837E-03  2.31102167E+00
  2.28212397E+00  2.84025837E-03  2.31102167E+00  2.28212397E+00  2.84025837E-03
  2.31102167E+00  2.28212397E+00  2.84025837E-03  2.31102167E+00  2.28212397E+00
  2.84025837E-03 -3.16156850E-01  2.30103068E+00 -1.08375793E-02 -3.16156850E-01
  2.30103068E+00 -1.08375793E-02 -3.16156850E-01  2.30103068E+00 -1.08375793E-02
 -3.16156850E-01  2.30103068E+00 -1.08375793E-02 -3.16156850E-01  2.30103068E+00
 -1.08375793E-02 -3.16156850E-01  2.30103068E+00 -1.08375793E-02 -3.16156850E-01
  2.30103068E+00 -1.08375793E-02 -3.16156850E-01  2.30103068E+00 -1.08375793E-02
 -3.16156850E-01  2.30103068E+00 -1.08375793E-02 -3.16156850E-01  2.30103068E+00
 -1.08375793E-02 -3.16156850E-01  2.30103068E+00 -1.08375793E-02 -1.55743101E+00
  0.00000000E+00 -1.68790337E-02 -1.55743101E+00  0.00000000E+00 -1.68790337E-02
 -1.55743101E+00  0.00000000E+00 -1.68790337E-02 -1.55743101E+00  0.00000000E+00
 -1.68790337E-02 -1.55743101E+00  0.00000000E+00 -1.68790337E-02 -1.55743101E+00
  0.00000000E+00 -1.68790337E-02 -1.55743101E+00  0.00000000E+00 -1.68790337E-02
 -1.55743101E+00  0.00000000E+00 -1.68790337E-02 -1.55743101E+00  0.00000000E+00
 -1.68790337E-02 -1.55743101E+00  0.00000000E+00 -1.68790337E-02 -1.55743101E+00
  0.00000000E+00 -1.68790337E-02 -3.16156850E-01 -2.30103068E+00 -1.08375793E-02
 -3.16156850E-01 -2.30103068E+00 -1.08375793E-02 -3.16156850E-01 -2.30103068E+00
 -1.08375793E-02 -3.16156850E-01 -2.30103068E+00 -1.08375793E-02 -3.16156850E-01
 -2.30103068E+00 -1.08375793E-02 -3.16156850E-01 -2.30103068E+00 -1.08375793E-02
 -3.16156850E-01 -2.30103068E+00 -1.08375793E-02 -3.16156850E-01 -2.30103068E+00
 -1.08375793E-02 -3.16156850E-01 -2.30103068E+00 -1.08375793E-02 -3.16156850E-01
 -2.30103068E+00 -1.08375793E-02 -3.16156850E-01 -2.30103068E+00 -1.08375793E-02
  2.31102167E+00 -2.28212397E+00  2.84025837E-03  2.31102167E+00 -2.28212397E+00
  2.84025837E-03  2.31102167E+00 -2.28212397E+00  2.84025837E-03  2.31102167E+00
 -2.28212397E+00  2.84025837E-03  2.31102167E+00 -2.28212397E+00  2.84025837E-03
  2.31102167E+00 -2.28212397E+00  2.84025837E-03  2.31102167E+00 -2.28212397E+00
  2.84025837E-03  2.31102167E+00 -2.28212397E+00  2.84025837E-03  2.31102167E+00
 -2.28212397E+00  2.84025837E-03  2.31102167E+00 -2.28212397E+00  2.84025837E-03
  2.31102167E+00 -2.28212397E+00  2.84025837E-03  5.65862236E+00  0.00000000E+00
  1.74931947E-02  5.65862236E+00  0.00000000E+00  1.74931947E-02  5.65862236E+00
  0.00000000E+00  1.74931947E-02  5.65862236E+00  0.00000000E+00  1.74931947E-02
  3.32979570E+00  4.05352112E+00  8.01243877E-04  3.32979570E+00  4.05352112E+00
  8.01243877E-04  3.32979570E+00  4.05352112E+00  8.01243877E-04  3.32979570E+00
  4.05352112E+00  8.01243877E-04 -1.34088541E+00  4.07405110E+00 -1.77558667E-02
 -1.34088541E+00  4.07405110E+00 -1.77558667E-02 -1.34088541E+00  4.07405110E+00
 -1.77558667E-02 -1.34088541E+00  4.07405110E+00 -1.77558667E-02 -1.34088541E+00
 -4.07405110E+00 -1.77558667E-02 -1.34088541E+00 -4.07405110E+00 -1.77558667E-02
 -1.34088541E+00 -4.07405110E+00 -1.77558667E-02 -1.34088541E+00 -4.07405110E+00
 -1.77558667E-02  3.32979570E+00 -4.05352112E+00  8.01243877E-04  3.32979570E+00
 -4.05352112E+00  8.01243877E-04  3.32979570E+00 -4.05352112E+00  8.01243877E-04
  3.32979570E+00 -4.05352112E+00  8.01243877E-04 -4.38037004E+00  0.00000000E+00
  1.45867960E-02 -4.38037004E+00  0.00000000E+00  1.45867960E-02 -4.38037004E+00
  0.00000000E+00  1.45867960E-02 -4.38037004E+00  0.00000000E+00  1.45867960E-02
 -4.38037004E+00  0.00000000E+00  1.45867960E-02 -4.38037004E+00  0.00000000E+00
  1.45867960E-02 -4.38037004E+00  0.00000000E+00  1.45867960E-02 -4.38037004E+00
  0.00000000E+00  1.45867960E-02 -4.38037004E+00  0.00000000E+00  1.45867960E-02
 -4.38037004E+00  0.00000000E+00  1.45867960E-02 -4.38037004E+00  0.00000000E+00
  1.45867960E-02 -5.08494876E+00 -1.55920169E+00 -8.87755539E-01 -5.08494876E+00
 -1.55920169E+00 -8.87755539E-01 -5.08494876E+00 -1.55920169E+00 -8.87755539E-01
 -5.08494876E+00 -1.55920169E+00 -8.87755539E-01 -5.08539473E+00 -6.23609621E-05
  1.81962106E+00 -5.08539473E+00 -6.23609621E-05  1.81962106E+00 -5.08539473E+00
 -6.23609621E-05  1.81962106E+00 -5.08539473E+00 -6.23609621E-05  1.81962106E+00
 -5.08494498E+00  1.55926783E+00 -8.87644045E-01 -5.08494498E+00  1.55926783E+00
 -8.87644045E-01 -5.08494498E+00  1.55926783E+00 -8.87644045E-01 -5.08494498E+00
  1.55926783E+00 -8.87644045E-01
Num ILSW                                   I              100
ILSW                                       I   N=         100
           0           0           0           0           2           0
           0           0           0           0         402          -1
           5           0           0           0           0           0
           0           0           0           0           0           0
           1           1           0           0           0           0
           0           0      100000           0          -1           0
           0           0           0           0           0           0
           0           0           0           1           0           0
           0 -2000000000           1           0           0           0
           0           0           4          52           0           0
           0           0           5           0           0           0
           0           0           0          15           0           1
           0           0           0           0           0           0
           0           0           0           0           0           0
           0           0           0           0           0           0
           0           0           0           0           0           0
           0           0           0           0
Num RLSW                                   I               52
RLSW                                       R   N=          52
  8.00000000E-01  7.20000000E-01  1.00000000E+00  8.10000000E-01  2.00000000E-01
  0.00000000E+00  0.00000000E+00  1.00000000E+00  0.00000000E+00  0.00000000E+00
  0.00000000E+00  0.00000000E+00  1.00000000E+00  0.00000000E+00  0.00000000E+00
  0.00000000E+00  0.00000000E+00  1.00000000E+00  0.00000000E+00  0.00000000E+00
  0.00000000E+00  0.00000000E+00  1.00000000E+00  0.00000000E+00  0.00000000E+00
  0.00000000E+00  0.00000000E+00  1.00000000E+00  0.00000000E+00  0.00000000E+00
  0.00000000E+00  0.00000000E+00  1.00000000E+00  0.00000000E+00  0.00000000E+00
  0.00000000E+00  0.00000000E+00  0.00000000E+00  1.00000000E+00  1.00000000E+00
  0.00000000E+00  1.00000000E+00  0.00000000E+00  0.00000000E+00  0.00000000E+00
  0.00000000E+00  0.00000000E+00  0.00000000E+00  0.00000000E+00  0.00000000E+00
  0.00000000E+00  0.00000000E+00
ECP-MxAtEC                                 I           250000
ECP-MaxLECP                                I               10
ECP-MaxAtL                                 I          2250000
ECP-MxTECP                                 I         11250000
ECP-LenNCZ                                 I                0
ECP-KFirst                                 I   N=         150
           0           0           0           0           0           0
           0           0           0           0           0           0
           0           0           0           0           0           0
           0           0           0           0           0           0
           0           0           0           0           0           0
           0           0           0           0           0           0
           0           0           0           0           0           0
           0           0           0           0           0           0
           0           0           0           0           0           0
           0           0           0           0           0           0
           0           0           0           0           0           0
           0           0           0           0           0           0
           0           0           0           0           0           0
           0           0           0           0           0           0
           0           0           0           0           0           0
           0           0           0           0           0           0
           0           0           0           0           0           0
           0           0           0           0           0           0
           0           0           0           0           0           0
           0           0           0           0           0           0
           0           0           0           0           0           0
           0           0           0           0           0           0
           0           0           0           0           0           0
           0           0           0           0           0           0
           0           0           0           0           0           0
ECP-KLast                                  I   N=         150
           0           0           0           0           0           0
           0           0           0           0           0           0
           0           0           0           0           0           0
           0           0           0           0           0           0
           0           0           0           0           0           0
           0           0           0           0           0           0
           0           0           0           0           0           0
           0           0           0           0           0           0
           0           0           0           0           0           0
           0           0           0           0           0           0
           0           0           0           0           0           0
           0           0           0           0           0           0
           0           0           0           0           0           0
           0           0           0           0           0           0
           0           0           0           0           0           0
           0           0           0           0           0           0
           0           0           0           0           0           0
           0           0           0           0           0           0
           0           0           0           0           0           0
           0           0           0           0           0           0
           0           0           0           0           0           0
           0           0           0           0           0           0
           0           0           0           0           0           0
           0           0           0           0           0           0
           0           0           0           0           0           0
ECP-LMax                                   I   N=          15
           0           0           0           0           0           0
           0           0           0           0           0           0
           0           0           0
ECP-LPSkip                                 I   N=          15
           1           1           1           1           1           1
           1           1           1           1           1           1
           1           1           1
ECP-RNFroz                                 R   N=          15
  0.00000000E+00  0.00000000E+00  0.00000000E+00  0.00000000E+00  0.00000000E+00
  0.00000000E+00  0.00000000E+00  0.00000000E+00  0.00000000E+00  0.00000000E+00
  0.00000000E+00  0.00000000E+00  0.00000000E+00  0.00000000E+00  0.00000000E+00
ECP-NLP                                    I                0
ECP-CLP1                                   R      0.000000000000000E+00
ECP-CLP2                                   R      0.000000000000000E+00
ECP-ZLP                                    R      0.000000000000000E+00
MxBond                                     I                4
NBond                                      I   N=          15