 Entering Gaussian System, Link 0=g16
 Initial command:
 /sw/cluster/pub/apps//g16/l1.exe "/data/mmaximo/28055/Gau-2502207.inp" -scrdir="/data/mmaximo/28055/"
 Entering Link 1 = /sw/cluster/pub/apps//g16/l1.exe PID=   2502208.
  
 Copyright (c) 1988,1990,1992,1993,1995,1998,2003,2009,2016,
            Gaussian, Inc.  All Rights Reserved.
  
 This is part of the Gaussian(R) 16 program.  It is based on
 the Gaussian(R) 09 system (copyright 2009, Gaussian, Inc.),
 the Gaussian(R) 03 system (copyright 2003, Gaussian, Inc.),
 the Gaussian(R) 98 system (copyright 1998, Gaussian, Inc.),
 the Gaussian(R) 94 system (copyright 1995, Gaussian, Inc.),
 the Gaussian 92(TM) system (copyright 1992, Gaussian, Inc.),
 the Gaussian 90(TM) system (copyright 1990, Gaussian, Inc.),
 the Gaussian 88(TM) system (copyright 1988, Gaussian, Inc.),
 the Gaussian 86(TM) system (copyright 1986, Carnegie Mellon
 University), and the Gaussian 82(TM) system (copyright 1983,
 Carnegie Mellon University). Gaussian is a federally registered
 trademark of Gaussian, Inc.
  
 This software contains proprietary and confidential information,
 including trade secrets, belonging to Gaussian, Inc.
  
 This software is provided under written license and may be
 used, copied, transmitted, or stored only in accord with that
 written license.
  
 The following legend is applicable only to US Government
 contracts under FAR:
  
                    RESTRICTED RIGHTS LEGEND
  
 Use, reproduction and disclosure by the US Government is
 subject to restrictions as set forth in subparagraphs (a)
 and (c) of the Commercial Computer Software - Restricted
 Rights clause in FAR 52.227-19.
  
 Gaussian, Inc.
 340 Quinnipiac St., Bldg. 40, Wallingford CT 06492
  
  
 ---------------------------------------------------------------
 Warning -- This program may not be used in any manner that
 competes with the business of Gaussian, Inc. or will provide
 assistance to any competitor of Gaussian, Inc.  The licensee
 of this program is prohibited from giving any competitor of
 Gaussian, Inc. access to this program.  By using this program,
 the user acknowledges that Gaussian, Inc. is engaged in the
 business of creating and licensing software in the field of
 computational chemistry and represents and warrants to the
 licensee that it is not a competitor of Gaussian, Inc. and that
 it will not use this program in any manner prohibited above.
 ---------------------------------------------------------------
  

 Cite this work as:
 Gaussian 16, Revision A.03,
 M. J. Frisch, G. W. Trucks, H. B. Schlegel, G. E. Scuseria, 
 M. A. Robb, J. R. Cheeseman, G. Scalmani, V. Barone, 
 G. A. Petersson, H. Nakatsuji, X. Li, M. Caricato, A. V. Marenich, 
 J. Bloino, B. G. Janesko, R. Gomperts, B. Mennucci, H. P. Hratchian, 
 J. V. Ortiz, A. F. Izmaylov, J. L. Sonnenberg, D. Williams-Young, 
 F. Ding, F. Lipparini, F. Egidi, J. Goings, B. Peng, A. Petrone, 
 T. Henderson, D. Ranasinghe, V. G. Zakrzewski, J. Gao, N. Rega, 
 G. Zheng, W. Liang, M. Hada, M. Ehara, K. Toyota, R. Fukuda, 
 J. Hasegawa, M. Ishida, T. Nakajima, Y. Honda, O. Kitao, H. Nakai, 
 T. Vreven, K. Throssell, J. A. Montgomery, Jr., J. E. Peralta, 
 F. Ogliaro, M. J. Bearpark, J. J. Heyd, E. N. Brothers, K. N. Kudin, 
 V. N. Staroverov, T. A. Keith, R. Kobayashi, J. Normand, 
 K. Raghavachari, A. P. Rendell, J. C. Burant, S. S. Iyengar, 
 J. Tomasi, M. Cossi, J. M. Millam, M. Klene, C. Adamo, R. Cammi, 
 J. W. Ochterski, R. L. Martin, K. Morokuma, O. Farkas, 
 J. B. Foresman, and D. J. Fox, Gaussian, Inc., Wallingford CT, 2016.
 
 ******************************************
 Gaussian 16:  ES64L-G16RevA.03 25-Dec-2016
                20-Jan-2025 
 ******************************************
 %chk=C6H4(CH2)2.chk
 -------------------------
 # opt freq b3lyp def2tzvp
 -------------------------
 1/18=20,19=15,26=3,38=1/1,3;
 2/9=110,12=2,17=6,18=5,40=1/2;
 3/5=44,7=101,11=2,25=1,30=1,71=1,74=-5/1,2,3;
 4//1;
 5/5=2,38=5/2;
 6/7=2,8=2,9=2,10=2,28=1/1;
 7//1,2,3,16;
 1/18=20,19=15,26=3/3(2);
 2/9=110/2;
 99//99;
 2/9=110/2;
 3/5=44,7=101,11=2,25=1,30=1,71=1,74=-5/1,2,3;
 4/5=5,16=3,69=1/1;
 5/5=2,38=5/2;
 7//1,2,3,16;
 1/18=20,19=15,26=3/3(-5);
 2/9=110/2;
 6/7=2,8=2,9=2,10=2,19=2,28=1/1;
 99/9=1/99;
 --------
 opt meta
 --------
 Symbolic Z-matrix:
 Charge =  0 Multiplicity = 1
 C                     0.03351   1.46154  -0.00067 
 C                     1.36004   0.67929   0.00172 
 C                     1.34755  -0.67585   0.00088 
 C                     0.00684  -1.43353  -0.00246 
 C                    -1.31968  -0.65128  -0.00485 
 C                    -1.3072    0.70386  -0.00401 
 C                     0.04599   2.81669   0.00017 
 H                     2.29157   1.20573   0.00404 
 H                     2.26923  -1.21937   0.00254 
 C                    -0.00564  -2.78867  -0.0033 
 H                    -2.22888   1.24738  -0.00567 
 H                    -0.93717  -3.31511  -0.00562 
 H                     0.91604  -3.33219  -0.00164 
 H                     0.97753   3.34313   0.00249 
 H                    -0.87568   3.3602   -0.0015 
 C                    -2.6604   -1.40896  -0.00819 
 O                    -2.67126  -2.66724   0.00567 
 O                    -3.89226  -0.68287   0.00621 
 H                    -4.62747  -1.30013   0.01406 
 

 GradGradGradGradGradGradGradGradGradGradGradGradGradGradGradGradGradGrad
 Berny optimization.
 Initialization pass.
                           ----------------------------
                           !    Initial Parameters    !
                           ! (Angstroms and Degrees)  !
 --------------------------                            --------------------------
 ! Name  Definition              Value          Derivative Info.                !
 --------------------------------------------------------------------------------
 ! R1    R(1,2)                  1.54           estimate D2E/DX2                !
 ! R2    R(1,6)                  1.54           estimate D2E/DX2                !
 ! R3    R(1,7)                  1.3552         estimate D2E/DX2                !
 ! R4    R(2,3)                  1.3552         estimate D2E/DX2                !
 ! R5    R(2,8)                  1.07           estimate D2E/DX2                !
 ! R6    R(3,4)                  1.54           estimate D2E/DX2                !
 ! R7    R(3,9)                  1.07           estimate D2E/DX2                !
 ! R8    R(4,5)                  1.54           estimate D2E/DX2                !
 ! R9    R(4,10)                 1.3552         estimate D2E/DX2                !
 ! R10   R(5,6)                  1.3552         estimate D2E/DX2                !
 ! R11   R(5,16)                 1.54           estimate D2E/DX2                !
 ! R12   R(6,11)                 1.07           estimate D2E/DX2                !
 ! R13   R(7,14)                 1.07           estimate D2E/DX2                !
 ! R14   R(7,15)                 1.07           estimate D2E/DX2                !
 ! R15   R(10,12)                1.07           estimate D2E/DX2                !
 ! R16   R(10,13)                1.07           estimate D2E/DX2                !
 ! R17   R(16,17)                1.2584         estimate D2E/DX2                !
 ! R18   R(16,18)                1.43           estimate D2E/DX2                !
 ! R19   R(18,19)                0.96           estimate D2E/DX2                !
 ! A1    A(2,1,6)              120.0            estimate D2E/DX2                !
 ! A2    A(2,1,7)              120.0            estimate D2E/DX2                !
 ! A3    A(6,1,7)              120.0            estimate D2E/DX2                !
 ! A4    A(1,2,3)              120.0            estimate D2E/DX2                !
 ! A5    A(1,2,8)              120.0            estimate D2E/DX2                !
 ! A6    A(3,2,8)              120.0            estimate D2E/DX2                !
 ! A7    A(2,3,4)              120.0            estimate D2E/DX2                !
 ! A8    A(2,3,9)              120.0            estimate D2E/DX2                !
 ! A9    A(4,3,9)              120.0            estimate D2E/DX2                !
 ! A10   A(3,4,5)              120.0            estimate D2E/DX2                !
 ! A11   A(3,4,10)             120.0            estimate D2E/DX2                !
 ! A12   A(5,4,10)             120.0            estimate D2E/DX2                !
 ! A13   A(4,5,6)              120.0            estimate D2E/DX2                !
 ! A14   A(4,5,16)             120.0            estimate D2E/DX2                !
 ! A15   A(6,5,16)             120.0            estimate D2E/DX2                !
 ! A16   A(1,6,5)              120.0            estimate D2E/DX2                !
 ! A17   A(1,6,11)             120.0            estimate D2E/DX2                !
 ! A18   A(5,6,11)             120.0            estimate D2E/DX2                !
 ! A19   A(1,7,14)             120.0            estimate D2E/DX2                !
 ! A20   A(1,7,15)             120.0            estimate D2E/DX2                !
 ! A21   A(14,7,15)            120.0            estimate D2E/DX2                !
 ! A22   A(4,10,12)            120.0            estimate D2E/DX2                !
 ! A23   A(4,10,13)            120.0            estimate D2E/DX2                !
 ! A24   A(12,10,13)           120.0            estimate D2E/DX2                !
 ! A25   A(5,16,17)            119.963          estimate D2E/DX2                !
 ! A26   A(5,16,18)            120.0083         estimate D2E/DX2                !
 ! A27   A(17,16,18)           120.0107         estimate D2E/DX2                !
 ! A28   A(16,18,19)           109.4712         estimate D2E/DX2                !
 ! D1    D(6,1,2,3)             -0.0001         estimate D2E/DX2                !
 ! D2    D(6,1,2,8)            180.0            estimate D2E/DX2                !
 ! D3    D(7,1,2,3)            179.9999         estimate D2E/DX2                !
 ! D4    D(7,1,2,8)             -0.0001         estimate D2E/DX2                !
 ! D5    D(2,1,6,5)             -0.0001         estimate D2E/DX2                !
 ! D6    D(2,1,6,11)           179.9999         estimate D2E/DX2                !
 ! D7    D(7,1,6,5)            180.0            estimate D2E/DX2                !
 ! D8    D(7,1,6,11)            -0.0001         estimate D2E/DX2                !
 ! D9    D(2,1,7,14)             0.0            estimate D2E/DX2                !
 ! D10   D(2,1,7,15)          -180.0            estimate D2E/DX2                !
 ! D11   D(6,1,7,14)           180.0            estimate D2E/DX2                !
 ! D12   D(6,1,7,15)             0.0            estimate D2E/DX2                !
 ! D13   D(1,2,3,4)              0.0002         estimate D2E/DX2                !
 ! D14   D(1,2,3,9)           -179.9999         estimate D2E/DX2                !
 ! D15   D(8,2,3,4)           -179.9999         estimate D2E/DX2                !
 ! D16   D(8,2,3,9)              0.0001         estimate D2E/DX2                !
 ! D17   D(2,3,4,5)             -0.0001         estimate D2E/DX2                !
 ! D18   D(2,3,4,10)           179.9999         estimate D2E/DX2                !
 ! D19   D(9,3,4,5)            179.9999         estimate D2E/DX2                !
 ! D20   D(9,3,4,10)             0.0            estimate D2E/DX2                !
 ! D21   D(3,4,5,6)              0.0            estimate D2E/DX2                !
 ! D22   D(3,4,5,16)          -180.0            estimate D2E/DX2                !
 ! D23   D(10,4,5,6)           179.9999         estimate D2E/DX2                !
 ! D24   D(10,4,5,16)           -0.0001         estimate D2E/DX2                !
 ! D25   D(3,4,10,12)          179.9999         estimate D2E/DX2                !
 ! D26   D(3,4,10,13)            0.0            estimate D2E/DX2                !
 ! D27   D(5,4,10,12)            0.0            estimate D2E/DX2                !
 ! D28   D(5,4,10,13)         -179.9999         estimate D2E/DX2                !
 ! D29   D(4,5,6,1)              0.0001         estimate D2E/DX2                !
 ! D30   D(4,5,6,11)          -179.9999         estimate D2E/DX2                !
 ! D31   D(16,5,6,1)          -179.9999         estimate D2E/DX2                !
 ! D32   D(16,5,6,11)            0.0001         estimate D2E/DX2                !
 ! D33   D(4,5,16,17)            0.7693         estimate D2E/DX2                !
 ! D34   D(4,5,16,18)          179.2307         estimate D2E/DX2                !
 ! D35   D(6,5,16,17)         -179.2307         estimate D2E/DX2                !
 ! D36   D(6,5,16,18)           -0.7693         estimate D2E/DX2                !
 ! D37   D(5,16,18,19)        -179.2303         estimate D2E/DX2                !
 ! D38   D(17,16,18,19)         -0.7697         estimate D2E/DX2                !
 --------------------------------------------------------------------------------
 Trust Radius=3.00D-01 FncErr=1.00D-07 GrdErr=1.00D-06 EigMax=2.50D+02 EigMin=1.00D-04
 Number of steps in this run=     95 maximum allowed number of steps=    114.
 GradGradGradGradGradGradGradGradGradGradGradGradGradGradGradGradGradGrad

                          Input orientation:                          
 ---------------------------------------------------------------------
 Center     Atomic      Atomic             Coordinates (Angstroms)
 Number     Number       Type             X           Y           Z
 ---------------------------------------------------------------------
      1          6           0        0.033511    1.461544   -0.000673
      2          6           0        1.360038    0.679291    0.001717
      3          6           0        1.347555   -0.675852    0.000882
      4          6           0        0.006843   -1.433532   -0.002461
      5          6           0       -1.319684   -0.651278   -0.004851
      6          6           0       -1.307201    0.703864   -0.004013
      7          6           0        0.045994    2.816687    0.000165
      8          1           0        2.291572    1.205731    0.004038
      9          1           0        2.269232   -1.219366    0.002544
     10          6           0       -0.005641   -2.788674   -0.003298
     11          1           0       -2.228879    1.247378   -0.005672
     12          1           0       -0.937174   -3.315115   -0.005619
     13          1           0        0.916037   -3.332188   -0.001636
     14          1           0        0.977528    3.343127    0.002486
     15          1           0       -0.875683    3.360201   -0.001495
     16          6           0       -2.660396   -1.408959   -0.008194
     17          8           0       -2.671256   -2.667236    0.005667
     18          8           0       -3.892258   -0.682867    0.006212
     19          1           0       -4.627465   -1.300125    0.014059
 ---------------------------------------------------------------------
                    Distance matrix (angstroms):
                    1          2          3          4          5
     1  C    0.000000
     2  C    1.540000   0.000000
     3  C    2.509019   1.355200   0.000000
     4  C    2.895200   2.509019   1.540000   0.000000
     5  C    2.509019   2.991884   2.667358   1.540000   0.000000
     6  C    1.540000   2.667358   2.991884   2.509019   1.355200
     7  C    1.355200   2.509019   3.727182   4.250400   3.727182
     8  H    2.272510   1.070000   2.105120   3.490808   4.060755
     9  H    3.490808   2.105120   1.070000   2.272510   3.633607
    10  C    4.250400   3.727182   2.509019   1.355200   2.509019
    11  H    2.272510   3.633607   4.060755   3.490808   2.105120
    12  H    4.874293   4.607875   3.490808   2.105120   2.691159
    13  H    4.874293   4.035977   2.691159   2.105120   3.490808
    14  H    2.105120   2.691159   4.035977   4.874293   4.607875
    15  H    2.105120   3.490808   4.607875   4.874293   4.035977
    16  C    3.936621   4.530428   4.074457   2.667358   1.540000
    17  O    4.935852   5.239330   4.485139   2.948610   2.427126
    18  O    4.473277   5.426058   5.239820   3.970712   2.572791
    19  H    5.417724   6.306222   6.007558   4.636257   3.370872
                    6          7          8          9         10
     6  C    0.000000
     7  C    2.509019   0.000000
     8  H    3.633607   2.763659   0.000000
     9  H    4.060755   4.607875   2.425200   0.000000
    10  C    3.727182   5.605600   4.607875   2.763659   0.000000
    11  H    1.070000   2.763659   4.520653   5.130097   4.607875
    12  H    4.035977   6.210124   5.555442   3.830571   1.070000
    13  H    4.607875   6.210124   4.741818   2.509019   1.070000
    14  H    3.490808   1.070000   2.509019   4.741818   6.210124
    15  H    2.691159   1.070000   3.830571   5.555442   6.210124
    16  C    2.509019   5.018037   5.599887   4.933285   2.991884
    17  O    3.636626   6.120203   6.295199   5.148278   2.668395
    18  O    2.933538   5.268466   6.465799   6.184804   4.420442
    19  H    3.878202   6.228126   7.358837   6.897180   4.855651
                   11         12         13         14         15
    11  H    0.000000
    12  H    4.741818   0.000000
    13  H    5.555442   1.853294   0.000000
    14  H    3.830571   6.928083   6.675600   0.000000
    15  H    2.509019   6.675600   6.928083   1.853294   0.000000
    16  C    2.691159   2.569617   4.060755   5.984725   5.092163
    17  O    3.939546   1.851193   3.648409   7.031223   6.289207
    18  O    2.548100   3.957447   5.489869   6.318501   5.044420
    19  H    3.499054   4.204618   5.904231   7.278453   5.982871
                   16         17         18         19
    16  C    0.000000
    17  O    1.258400   0.000000
    18  O    1.430000   2.329928   0.000000
    19  H    1.970203   2.386591   0.960000   0.000000
 Stoichiometry    C9H8O2
 Framework group  C1[X(C9H8O2)]
 Deg. of freedom    51
 Full point group                 C1      NOp   1
 Largest Abelian subgroup         C1      NOp   1
 Largest concise Abelian subgroup C1      NOp   1
                         Standard orientation:                         
 ---------------------------------------------------------------------
 Center     Atomic      Atomic             Coordinates (Angstroms)
 Number     Number       Type             X           Y           Z
 ---------------------------------------------------------------------
      1          6           0        1.995754   -0.711379    0.000100
      2          6           0        2.395527    0.775823   -0.003237
      3          6           0        1.438028    1.734865   -0.002590
      4          6           0       -0.049813    1.337483    0.001487
      5          6           0       -0.449587   -0.149719    0.004825
      6          6           0        0.507912   -1.108761    0.004175
      7          6           0        2.953253   -1.670421   -0.000550
      8          1           0        3.429287    1.051926   -0.006068
      9          1           0        1.715793    2.768180   -0.004910
     10          6           0       -1.007313    2.296525    0.002136
     11          1           0        0.230148   -2.142077    0.006492
     12          1           0       -2.041072    2.020422    0.004968
     13          1           0       -0.729548    3.329841   -0.000184
     14          1           0        3.987013   -1.394318   -0.003381
     15          1           0        2.675488   -2.703737    0.001769
     16          6           0       -1.937428   -0.547100    0.008902
     17          8           0       -2.825968    0.343893   -0.005135
     18          8           0       -2.308915   -1.927939   -0.004625
     19          1           0       -3.266043   -2.001763   -0.012098
 ---------------------------------------------------------------------
 Rotational constants (GHZ):           1.7448595           0.8783807           0.5842625
 Standard basis: def2TZVP (5D, 7F)
 There are   444 symmetry adapted cartesian basis functions of A   symmetry.
 There are   389 symmetry adapted basis functions of A   symmetry.
   389 basis functions,   625 primitive gaussians,   444 cartesian basis functions
    39 alpha electrons       39 beta electrons
       nuclear repulsion energy       545.9574665659 Hartrees.
 NAtoms=   19 NActive=   19 NUniq=   19 SFac= 1.00D+00 NAtFMM=   60 NAOKFM=F Big=F
 Integral buffers will be    131072 words long.
 Raffenetti 2 integral format.
 Two-electron integral symmetry is turned on.
 One-electron integrals computed using PRISM.
   1 Symmetry operations used in ECPInt.
 ECPInt:  NShTT=   11781 NPrTT=   36312 LenC2=   11206 LenP2D=   26432.
 LDataN:  DoStor=T MaxTD1= 6 Len=  172
 NBasis=   389 RedAO= T EigKep=  1.21D-05  NBF=   389
 NBsUse=   389 1.00D-06 EigRej= -1.00D+00 NBFU=   389
 ExpMin= 9.52D-02 ExpMax= 2.70D+04 ExpMxC= 9.22D+02 IAcc=3 IRadAn=         5 AccDes= 0.00D+00
 Harris functional with IExCor=  402 and IRadAn=       5 diagonalized for initial guess.
 HarFok:  IExCor=  402 AccDes= 0.00D+00 IRadAn=         5 IDoV= 1 UseB2=F ITyADJ=14
 ICtDFT=  3500011 ScaDFX=  1.000000  1.000000  1.000000  1.000000
 FoFCou: FMM=F IPFlag=           0 FMFlag=      100000 FMFlg1=           0
         NFxFlg=           0 DoJE=T BraDBF=F KetDBF=T FulRan=T
         wScrn=  0.000000 ICntrl=       500 IOpCl=  0 I1Cent=   200000004 NGrid=           0
         NMat0=    1 NMatS0=      1 NMatT0=    0 NMatD0=    1 NMtDS0=    0 NMtDT0=    0
 Petite list used in FoFCou.
 Requested convergence on RMS density matrix=1.00D-08 within 128 cycles.
 Requested convergence on MAX density matrix=1.00D-06.
 Requested convergence on             energy=1.00D-06.
 No special actions if energy rises.
 Integral accuracy reduced to 1.0D-05 until final iterations.
 Initial convergence to 1.0D-05 achieved.  Increase integral accuracy.
 SCF Done:  E(RB3LYP) =  -498.349689120     A.U. after   15 cycles
            NFock= 15  Conv=0.78D-08     -V/T= 2.0066

 **********************************************************************

            Population analysis using the SCF density.

 **********************************************************************

 Orbital symmetries:
       Occupied  (A) (A) (A) (A) (A) (A) (A) (A) (A) (A) (A) (A)
                 (A) (A) (A) (A) (A) (A) (A) (A) (A) (A) (A) (A)
                 (A) (A) (A) (A) (A) (A) (A) (A) (A) (A) (A) (A)
                 (A) (A) (A)
       Virtual   (A) (A) (A) (A) (A) (A) (A) (A) (A) (A) (A) (A)
                 (A) (A) (A) (A) (A) (A) (A) (A) (A) (A) (A) (A)
                 (A) (A) (A) (A) (A) (A) (A) (A) (A) (A) (A) (A)
                 (A) (A) (A) (A) (A) (A) (A) (A) (A) (A) (A) (A)
                 (A) (A) (A) (A) (A) (A) (A) (A) (A) (A) (A) (A)
                 (A) (A) (A) (A) (A) (A) (A) (A) (A) (A) (A) (A)
                 (A) (A) (A) (A) (A) (A) (A) (A) (A) (A) (A) (A)
                 (A) (A) (A) (A) (A) (A) (A) (A) (A) (A) (A) (A)
                 (A) (A) (A) (A) (A) (A) (A) (A) (A) (A) (A) (A)
                 (A) (A) (A) (A) (A) (A) (A) (A) (A) (A) (A) (A)
                 (A) (A) (A) (A) (A) (A) (A) (A) (A) (A) (A) (A)
                 (A) (A) (A) (A) (A) (A) (A) (A) (A) (A) (A) (A)
                 (A) (A) (A) (A) (A) (A) (A) (A) (A) (A) (A) (A)
                 (A) (A) (A) (A) (A) (A) (A) (A) (A) (A) (A) (A)
                 (A) (A) (A) (A) (A) (A) (A) (A) (A) (A) (A) (A)
                 (A) (A) (A) (A) (A) (A) (A) (A) (A) (A) (A) (A)
                 (A) (A) (A) (A) (A) (A) (A) (A) (A) (A) (A) (A)
                 (A) (A) (A) (A) (A) (A) (A) (A) (A) (A) (A) (A)
                 (A) (A) (A) (A) (A) (A) (A) (A) (A) (A) (A) (A)
                 (A) (A) (A) (A) (A) (A) (A) (A) (A) (A) (A) (A)
                 (A) (A) (A) (A) (A) (A) (A) (A) (A) (A) (A) (A)
                 (A) (A) (A) (A) (A) (A) (A) (A) (A) (A) (A) (A)
                 (A) (A) (A) (A) (A) (A) (A) (A) (A) (A) (A) (A)
                 (A) (A) (A) (A) (A) (A) (A) (A) (A) (A) (A) (A)
                 (A) (A) (A) (A) (A) (A) (A) (A) (A) (A) (A) (A)
                 (A) (A) (A) (A) (A) (A) (A) (A) (A) (A) (A) (A)
                 (A) (A) (A) (A) (A) (A) (A) (A) (A) (A) (A) (A)
                 (A) (A) (A) (A) (A) (A) (A) (A) (A) (A) (A) (A)
                 (A) (A) (A) (A) (A) (A) (A) (A) (A) (A) (A) (A)
                 (A) (A)
 The electronic state is 1-A.
 Alpha  occ. eigenvalues --  -19.18279 -19.13007 -10.33580 -10.22581 -10.21851
 Alpha  occ. eigenvalues --  -10.21529 -10.21013 -10.19857 -10.19613 -10.18408
 Alpha  occ. eigenvalues --  -10.16346  -1.08979  -1.01314  -0.85765  -0.79370
 Alpha  occ. eigenvalues --   -0.78233  -0.73122  -0.66364  -0.61704  -0.60833
 Alpha  occ. eigenvalues --   -0.57521  -0.52173  -0.49631  -0.49299  -0.48868
 Alpha  occ. eigenvalues --   -0.46482  -0.44495  -0.43221  -0.42127  -0.40730
 Alpha  occ. eigenvalues --   -0.38728  -0.37835  -0.37768  -0.35320  -0.33577
 Alpha  occ. eigenvalues --   -0.30775  -0.29023  -0.28169  -0.22219
 Alpha virt. eigenvalues --   -0.08729  -0.04671   0.00667   0.02449   0.03114
 Alpha virt. eigenvalues --    0.05333   0.06074   0.08280   0.09229   0.11150
 Alpha virt. eigenvalues --    0.11268   0.12094   0.12793   0.13288   0.13759
 Alpha virt. eigenvalues --    0.15025   0.15955   0.17900   0.18896   0.19672
 Alpha virt. eigenvalues --    0.21006   0.21735   0.21992   0.23258   0.24455
 Alpha virt. eigenvalues --    0.24625   0.25079   0.26732   0.27778   0.28740
 Alpha virt. eigenvalues --    0.28868   0.29399   0.30162   0.31257   0.32424
 Alpha virt. eigenvalues --    0.32921   0.33816   0.34587   0.35885   0.36608
 Alpha virt. eigenvalues --    0.38259   0.38767   0.40443   0.42252   0.43009
 Alpha virt. eigenvalues --    0.43182   0.43646   0.44646   0.45771   0.46425
 Alpha virt. eigenvalues --    0.46483   0.48944   0.49661   0.50478   0.51579
 Alpha virt. eigenvalues --    0.51814   0.53951   0.54050   0.55044   0.56125
 Alpha virt. eigenvalues --    0.56907   0.57341   0.57625   0.58661   0.61587
 Alpha virt. eigenvalues --    0.62451   0.65283   0.65862   0.66224   0.66945
 Alpha virt. eigenvalues --    0.68828   0.71139   0.71390   0.72253   0.74468
 Alpha virt. eigenvalues --    0.74840   0.75218   0.76483   0.78632   0.79581
 Alpha virt. eigenvalues --    0.82602   0.82666   0.83858   0.84364   0.85826
 Alpha virt. eigenvalues --    0.87485   0.87680   0.92149   0.93074   0.94061
 Alpha virt. eigenvalues --    0.94485   0.96382   0.96924   0.98602   1.03628
 Alpha virt. eigenvalues --    1.04233   1.04698   1.08670   1.09179   1.09266
 Alpha virt. eigenvalues --    1.11868   1.14208   1.16080   1.18625   1.19393
 Alpha virt. eigenvalues --    1.20915   1.21953   1.23090   1.24829   1.27886
 Alpha virt. eigenvalues --    1.28107   1.29440   1.30158   1.31188   1.32695
 Alpha virt. eigenvalues --    1.33848   1.37873   1.38958   1.41237   1.43373
 Alpha virt. eigenvalues --    1.46072   1.46809   1.47529   1.47975   1.50947
 Alpha virt. eigenvalues --    1.53813   1.54664   1.55150   1.56327   1.57276
 Alpha virt. eigenvalues --    1.59134   1.60575   1.60849   1.61633   1.63572
 Alpha virt. eigenvalues --    1.63672   1.66763   1.67270   1.67513   1.69432
 Alpha virt. eigenvalues --    1.71083   1.75035   1.79356   1.80662   1.81412
 Alpha virt. eigenvalues --    1.83194   1.83773   1.86552   1.86699   1.88668
 Alpha virt. eigenvalues --    1.90400   1.90936   1.92371   1.94279   1.95268
 Alpha virt. eigenvalues --    1.95329   1.98684   2.00692   2.02473   2.05563
 Alpha virt. eigenvalues --    2.08241   2.08651   2.09910   2.12736   2.14862
 Alpha virt. eigenvalues --    2.16132   2.16864   2.20190   2.21074   2.22924
 Alpha virt. eigenvalues --    2.25707   2.31053   2.32264   2.34292   2.37162
 Alpha virt. eigenvalues --    2.39650   2.42312   2.43256   2.43539   2.43885
 Alpha virt. eigenvalues --    2.46071   2.47604   2.49660   2.51002   2.51425
 Alpha virt. eigenvalues --    2.56959   2.59188   2.59659   2.61723   2.62204
 Alpha virt. eigenvalues --    2.64761   2.65957   2.66557   2.67363   2.68695
 Alpha virt. eigenvalues --    2.68796   2.70210   2.73804   2.73818   2.74512
 Alpha virt. eigenvalues --    2.76963   2.78663   2.79929   2.80473   2.81211
 Alpha virt. eigenvalues --    2.85796   2.86373   2.87477   2.89977   2.91169
 Alpha virt. eigenvalues --    2.92011   2.92994   2.94685   2.99101   3.00218
 Alpha virt. eigenvalues --    3.00950   3.01048   3.01367   3.03698   3.04996
 Alpha virt. eigenvalues --    3.05212   3.05745   3.06148   3.08731   3.11064
 Alpha virt. eigenvalues --    3.12183   3.12902   3.13913   3.14820   3.16189
 Alpha virt. eigenvalues --    3.16274   3.17281   3.19740   3.20898   3.21275
 Alpha virt. eigenvalues --    3.22013   3.23167   3.23908   3.24606   3.28277
 Alpha virt. eigenvalues --    3.28439   3.30032   3.30278   3.33358   3.33643
 Alpha virt. eigenvalues --    3.35284   3.36706   3.39450   3.39540   3.40298
 Alpha virt. eigenvalues --    3.40880   3.42176   3.43410   3.44296   3.45568
 Alpha virt. eigenvalues --    3.47103   3.47864   3.49139   3.51665   3.54372
 Alpha virt. eigenvalues --    3.57850   3.58327   3.62081   3.63027   3.63571
 Alpha virt. eigenvalues --    3.67627   3.71406   3.72670   3.77516   3.79162
 Alpha virt. eigenvalues --    3.80577   3.81803   3.88033   3.92031   3.94399
 Alpha virt. eigenvalues --    3.97676   3.99827   4.00067   4.00480   4.03220
 Alpha virt. eigenvalues --    4.05879   4.06459   4.11952   4.12231   4.13332
 Alpha virt. eigenvalues --    4.15587   4.20454   4.23160   4.26544   4.30363
 Alpha virt. eigenvalues --    4.33832   4.39090   4.39232   4.42764   4.49924
 Alpha virt. eigenvalues --    4.51875   4.53838   4.56016   4.63728   4.64951
 Alpha virt. eigenvalues --    4.66032   4.68993   4.74634   4.76160   4.83211
 Alpha virt. eigenvalues --    4.89230   4.95121   5.01698   5.09171   5.10332
 Alpha virt. eigenvalues --    5.11636   5.15529   5.17967   5.24390   5.25567
 Alpha virt. eigenvalues --    5.31537   5.34838   5.38269   5.41790   5.47332
 Alpha virt. eigenvalues --    5.54276   5.64177   5.68887   5.70802   5.84458
 Alpha virt. eigenvalues --    5.98285   6.19955   6.28169   6.28591   6.39134
 Alpha virt. eigenvalues --    6.53541   6.57080   6.63329   6.72837   6.77980
 Alpha virt. eigenvalues --    6.93171   7.01231   7.09768   7.24441  21.98998
 Alpha virt. eigenvalues --   22.28920  22.38172  22.50898  22.68027  22.73182
 Alpha virt. eigenvalues --   22.79804  22.87413  23.25364  43.73312  43.85032
          Condensed to atoms (all electrons):
               1          2          3          4          5          6
     1  C    4.824226   0.353223  -0.009159  -0.038167  -0.007010   0.298469
     2  C    0.353223   5.009036   0.577460  -0.026853  -0.021639  -0.024667
     3  C   -0.009159   0.577460   5.007417   0.367634  -0.036306  -0.040546
     4  C   -0.038167  -0.026853   0.367634   4.965070   0.341322  -0.056226
     5  C   -0.007010  -0.021639  -0.036306   0.341322   5.324494   0.431271
     6  C    0.298469  -0.024667  -0.040546  -0.056226   0.431271   5.198084
     7  C    0.554144  -0.074453   0.002301   0.003312   0.007064  -0.062122
     8  H   -0.044831   0.418116  -0.044654   0.008360  -0.002251   0.008379
     9  H    0.008233  -0.047984   0.416927  -0.041198   0.009230  -0.001983
    10  C    0.002095  -0.001604  -0.068572   0.544177  -0.043534   0.003212
    11  H   -0.044923   0.006495  -0.001872   0.009216  -0.028114   0.407188
    12  H    0.000198  -0.000487   0.006960  -0.026200  -0.003945  -0.000760
    13  H    0.000153   0.000209  -0.010832  -0.061427   0.012284  -0.001104
    14  H   -0.046224  -0.009730   0.000402   0.000197  -0.001029   0.010411
    15  H   -0.046485   0.008636  -0.000522  -0.000010   0.001707  -0.011214
    16  C    0.003347   0.002975   0.006559  -0.071410   0.256469  -0.011927
    17  O    0.000364  -0.000247   0.001559  -0.016686  -0.108180   0.002304
    18  O    0.000369   0.000078  -0.000051  -0.004422  -0.133335   0.026376
    19  H   -0.000050  -0.000004   0.000017   0.000978   0.024591  -0.004354
               7          8          9         10         11         12
     1  C    0.554144  -0.044831   0.008233   0.002095  -0.044923   0.000198
     2  C   -0.074453   0.418116  -0.047984  -0.001604   0.006495  -0.000487
     3  C    0.002301  -0.044654   0.416927  -0.068572  -0.001872   0.006960
     4  C    0.003312   0.008360  -0.041198   0.544177   0.009216  -0.026200
     5  C    0.007064  -0.002251   0.009230  -0.043534  -0.028114  -0.003945
     6  C   -0.062122   0.008379  -0.001983   0.003212   0.407188  -0.000760
     7  C    5.030802  -0.001999  -0.000319   0.000301  -0.000763   0.000011
     8  H   -0.001999   0.551053  -0.008518  -0.000574  -0.000110   0.000010
     9  H   -0.000319  -0.008518   0.545822  -0.000274   0.000037  -0.000131
    10  C    0.000301  -0.000574  -0.000274   5.087981  -0.000305   0.423556
    11  H   -0.000763  -0.000110   0.000037  -0.000305   0.507021  -0.000026
    12  H    0.000011   0.000010  -0.000131   0.423556  -0.000026   0.449791
    13  H   -0.000001  -0.000101   0.005441   0.403916   0.000008  -0.023563
    14  H    0.412945   0.004998  -0.000071  -0.000005  -0.000193   0.000000
    15  H    0.415868  -0.000302   0.000021   0.000002   0.003905  -0.000000
    16  C   -0.002318   0.000081  -0.000195  -0.024976  -0.010859  -0.017450
    17  O   -0.000005  -0.000002   0.000046  -0.054981   0.000206   0.013254
    18  O   -0.000187  -0.000000   0.000003  -0.000136   0.012226   0.000203
    19  H    0.000007   0.000000  -0.000001   0.000018  -0.000488   0.000146
              13         14         15         16         17         18
     1  C    0.000153  -0.046224  -0.046485   0.003347   0.000364   0.000369
     2  C    0.000209  -0.009730   0.008636   0.002975  -0.000247   0.000078
     3  C   -0.010832   0.000402  -0.000522   0.006559   0.001559  -0.000051
     4  C   -0.061427   0.000197  -0.000010  -0.071410  -0.016686  -0.004422
     5  C    0.012284  -0.001029   0.001707   0.256469  -0.108180  -0.133335
     6  C   -0.001104   0.010411  -0.011214  -0.011927   0.002304   0.026376
     7  C   -0.000001   0.412945   0.415868  -0.002318  -0.000005  -0.000187
     8  H   -0.000101   0.004998  -0.000302   0.000081  -0.000002  -0.000000
     9  H    0.005441  -0.000071   0.000021  -0.000195   0.000046   0.000003
    10  C    0.403916  -0.000005   0.000002  -0.024976  -0.054981  -0.000136
    11  H    0.000008  -0.000193   0.003905  -0.010859   0.000206   0.012226
    12  H   -0.023563   0.000000  -0.000000  -0.017450   0.013254   0.000203
    13  H    0.563606  -0.000000   0.000000   0.001186   0.002937   0.000033
    14  H   -0.000000   0.536583  -0.028779   0.000004  -0.000000   0.000000
    15  H    0.000000  -0.028779   0.536113  -0.000014   0.000001  -0.000002
    16  C    0.001186   0.000004  -0.000014   4.558375   0.604078   0.393670
    17  O    0.002937  -0.000000   0.000001   0.604078   7.987979  -0.078451
    18  O    0.000033   0.000000  -0.000002   0.393670  -0.078451   7.898909
    19  H   -0.000011   0.000000  -0.000002  -0.025488   0.006984   0.282003
              19
     1  C   -0.000050
     2  C   -0.000004
     3  C    0.000017
     4  C    0.000978
     5  C    0.024591
     6  C   -0.004354
     7  C    0.000007
     8  H    0.000000
     9  H   -0.000001
    10  C    0.000018
    11  H   -0.000488
    12  H    0.000146
    13  H   -0.000011
    14  H    0.000000
    15  H   -0.000002
    16  C   -0.025488
    17  O    0.006984
    18  O    0.282003
    19  H    0.393289
 Mulliken charges:
               1
     1  C    0.192027
     2  C   -0.168561
     3  C   -0.174722
     4  C    0.102333
     5  C   -0.023091
     6  C   -0.170790
     7  C   -0.284587
     8  H    0.112345
     9  H    0.114914
    10  C   -0.270297
    11  H    0.141352
    12  H    0.178433
    13  H    0.107266
    14  H    0.120492
    15  H    0.121077
    16  C    0.337891
    17  O   -0.361162
    18  O   -0.397285
    19  H    0.322365
 Sum of Mulliken charges =  -0.00000
 Mulliken charges with hydrogens summed into heavy atoms:
               1
     1  C    0.192027
     2  C   -0.056216
     3  C   -0.059808
     4  C    0.102333
     5  C   -0.023091
     6  C   -0.029438
     7  C   -0.043018
    10  C    0.015401
    16  C    0.337891
    17  O   -0.361162
    18  O   -0.074920
 Electronic spatial extent (au):  <R**2>=           1851.4162
 Charge=             -0.0000 electrons
 Dipole moment (field-independent basis, Debye):
    X=              1.5964    Y=             -1.0078    Z=              0.0078  Tot=              1.8879
 Quadrupole moment (field-independent basis, Debye-Ang):
   XX=            -58.9782   YY=            -58.0841   ZZ=            -68.7169
   XY=              5.7243   XZ=             -0.0243   YZ=              0.0007
 Traceless Quadrupole moment (field-independent basis, Debye-Ang):
   XX=              2.9482   YY=              3.8423   ZZ=             -6.7905
   XY=              5.7243   XZ=             -0.0243   YZ=              0.0007
 Octapole moment (field-independent basis, Debye-Ang**2):
  XXX=             -8.3152  YYY=             -1.3043  ZZZ=             -0.0581  XYY=             -7.0701
  XXY=            -25.3402  XXZ=             -0.1600  XZZ=            -13.7902  YZZ=             -4.2953
  YYZ=             -0.1058  XYZ=             -0.1393
 Hexadecapole moment (field-independent basis, Debye-Ang**3):
 XXXX=          -1388.9907 YYYY=           -792.1052 ZZZZ=            -77.3557 XXXY=            123.9718
 XXXZ=              0.2430 YYYX=             29.7689 YYYZ=              0.0240 ZZZX=              0.1556
 ZZZY=              0.0374 XXYY=           -339.9686 XXZZ=           -288.3147 YYZZ=           -171.6592
 XXYZ=              0.4287 YYXZ=              0.2984 ZZXY=             10.2694
 N-N= 5.459574665659D+02 E-N=-2.253433260878D+03  KE= 4.950638132662D+02
   1 Symmetry operations used in ECPInt.
 ECPInt:  NShTT=   11781 NPrTT=   36312 LenC2=   11206 LenP2D=   26432.
 LDataN:  DoStor=T MaxTD1= 7 Len=  274
 Calling FoFJK, ICntrl=      2127 FMM=F ISym2X=0 I1Cent= 0 IOpClX= 0 NMat=1 NMatS=1 NMatT=0.
 ***** Axes restored to original set *****
 -------------------------------------------------------------------
 Center     Atomic                   Forces (Hartrees/Bohr)
 Number     Number              X              Y              Z
 -------------------------------------------------------------------
      1        6           0.001295900   -0.013411452    0.000111370
      2        6          -0.049388321   -0.013796313   -0.000118348
      3        6          -0.053278320    0.017295034   -0.000094376
      4        6           0.002803512    0.000932236   -0.000042845
      5        6          -0.000282857   -0.001666212   -0.000879010
      6        6           0.051437842   -0.003165382    0.000041447
      7        6          -0.002907778   -0.025287398   -0.000017451
      8        1           0.004443846    0.009168901    0.000010371
      9        1           0.003691382   -0.009587629    0.000005260
     10        6           0.007213666    0.018974340   -0.000056383
     11        1          -0.004591307    0.008063177   -0.000038936
     12        1           0.003558968   -0.005041539   -0.000008907
     13        1           0.008828665   -0.003948652    0.000013286
     14        1           0.005298735    0.006941066   -0.000003605
     15        1          -0.005200379    0.007403826    0.000002370
     16        6          -0.008822861   -0.056752176    0.004506481
     17        8          -0.022973977    0.075864969   -0.001927194
     18        8           0.058092910   -0.000067783   -0.001482642
     19        1           0.000780375   -0.011919015   -0.000020889
 -------------------------------------------------------------------
 Cartesian Forces:  Max     0.075864969 RMS     0.020256193

 GradGradGradGradGradGradGradGradGradGradGradGradGradGradGradGradGradGrad
 Berny optimization.
 FormGI is forming the generalized inverse of G from B-inverse, IUseBI=4.
 Internal  Forces:  Max     0.075680674 RMS     0.018708382
 Search for a local minimum.
 Step number   1 out of a maximum of   95
 All quantities printed in internal units (Hartrees-Bohrs-Radians)
 Mixed Optimization -- RFO/linear search
 Second derivative matrix not updated -- first step.
 ITU=  0
     Eigenvalues ---    0.00237   0.00237   0.00576   0.00593   0.00939
     Eigenvalues ---    0.01052   0.01186   0.01295   0.01333   0.01456
     Eigenvalues ---    0.01801   0.01863   0.02681   0.02681   0.02681
     Eigenvalues ---    0.02681   0.16000   0.16000   0.16000   0.16000
     Eigenvalues ---    0.16000   0.16000   0.16000   0.16000   0.22336
     Eigenvalues ---    0.23434   0.24599   0.24996   0.25000   0.25000
     Eigenvalues ---    0.25000   0.25000   0.27835   0.28210   0.28519
     Eigenvalues ---    0.28519   0.28519   0.37230   0.37230   0.37230
     Eigenvalues ---    0.37230   0.37230   0.37230   0.37230   0.40989
     Eigenvalues ---    0.50846   0.53930   0.53930   0.53930   0.55473
     Eigenvalues ---    0.80209
 RFO step:  Lambda=-7.46025694D-02 EMin= 2.36824191D-03
 Linear search not attempted -- first point.
 Maximum step size (   0.300) exceeded in Quadratic search.
    -- Step size scaled by   0.662
 Iteration  1 RMS(Cart)=  0.13299433 RMS(Int)=  0.00619593
 Iteration  2 RMS(Cart)=  0.00836827 RMS(Int)=  0.00006817
 Iteration  3 RMS(Cart)=  0.00001668 RMS(Int)=  0.00006775
 Iteration  4 RMS(Cart)=  0.00000000 RMS(Int)=  0.00006775
 Variable       Old X    -DE/DX   Delta X   Delta X   Delta X     New X
                                 (Linear)    (Quad)   (Total)
    R1        2.91018  -0.05061   0.00000  -0.09392  -0.09391   2.81626
    R2        2.91018  -0.05084   0.00000  -0.09352  -0.09361   2.81656
    R3        2.56096  -0.01097   0.00000  -0.01183  -0.01183   2.54913
    R4        2.56096  -0.01812   0.00000  -0.02001  -0.01992   2.54104
    R5        2.02201   0.00838   0.00000   0.01242   0.01242   2.03442
    R6        2.91018  -0.04324   0.00000  -0.07961  -0.07952   2.83066
    R7        2.02201   0.00805   0.00000   0.01193   0.01193   2.03393
    R8        2.91018  -0.01863   0.00000  -0.03350  -0.03350   2.87668
    R9        2.56096  -0.01016   0.00000  -0.01096  -0.01096   2.54999
   R10        2.56096  -0.00596   0.00000  -0.00596  -0.00605   2.55491
   R11        2.91018  -0.02708   0.00000  -0.04984  -0.04984   2.86034
   R12        2.02201   0.00805   0.00000   0.01193   0.01193   2.03393
   R13        2.02201   0.00803   0.00000   0.01189   0.01189   2.03390
   R14        2.02201   0.00824   0.00000   0.01221   0.01221   2.03421
   R15        2.02201  -0.00062   0.00000  -0.00092  -0.00092   2.02109
   R16        2.02201   0.00961   0.00000   0.01424   0.01424   2.03625
   R17        2.37803  -0.07568   0.00000  -0.05716  -0.05716   2.32088
   R18        2.70231  -0.05682   0.00000  -0.07764  -0.07764   2.62466
   R19        1.81414   0.00707   0.00000   0.00743   0.00743   1.82157
    A1        2.09440  -0.01464   0.00000  -0.03203  -0.03212   2.06227
    A2        2.09440   0.01049   0.00000   0.02247   0.02251   2.11691
    A3        2.09440   0.00416   0.00000   0.00956   0.00961   2.10400
    A4        2.09440   0.00674   0.00000   0.01162   0.01173   2.10613
    A5        2.09440  -0.00923   0.00000  -0.02235  -0.02240   2.07199
    A6        2.09440   0.00249   0.00000   0.01072   0.01067   2.10507
    A7        2.09440   0.01738   0.00000   0.03642   0.03661   2.13101
    A8        2.09440  -0.00223   0.00000   0.00001  -0.00009   2.09430
    A9        2.09440  -0.01514   0.00000  -0.03642  -0.03652   2.05787
   A10        2.09440  -0.02394   0.00000  -0.04925  -0.04915   2.04524
   A11        2.09440  -0.02031   0.00000  -0.04122  -0.04127   2.05313
   A12        2.09440   0.04425   0.00000   0.09047   0.09042   2.18482
   A13        2.09440  -0.00154   0.00000  -0.00252  -0.00263   2.09176
   A14        2.09440   0.03621   0.00000   0.07355   0.07360   2.16800
   A15        2.09440  -0.03467   0.00000  -0.07103  -0.07097   2.02342
   A16        2.09440   0.01600   0.00000   0.03576   0.03556   2.12996
   A17        2.09440  -0.01267   0.00000  -0.03104  -0.03094   2.06345
   A18        2.09440  -0.00334   0.00000  -0.00472  -0.00462   2.08978
   A19        2.09440   0.00211   0.00000   0.00596   0.00596   2.10036
   A20        2.09440   0.00272   0.00000   0.00768   0.00768   2.10207
   A21        2.09440  -0.00483   0.00000  -0.01364  -0.01364   2.08075
   A22        2.09440   0.00901   0.00000   0.02542   0.02542   2.11981
   A23        2.09440  -0.00560   0.00000  -0.01580  -0.01580   2.07860
   A24        2.09440  -0.00341   0.00000  -0.00962  -0.00962   2.08478
   A25        2.09375   0.04926   0.00000   0.10056   0.10054   2.19429
   A26        2.09454  -0.04232   0.00000  -0.08625  -0.08627   2.00827
   A27        2.09458  -0.00692   0.00000  -0.01404  -0.01406   2.08052
   A28        1.91063  -0.01747   0.00000  -0.04931  -0.04931   1.86133
    D1       -0.00000  -0.00000   0.00000  -0.00001  -0.00000  -0.00000
    D2        3.14159  -0.00002   0.00000  -0.00012  -0.00012   3.14147
    D3        3.14159   0.00002   0.00000   0.00013   0.00013  -3.14147
    D4       -0.00000   0.00000   0.00000   0.00001   0.00001   0.00001
    D5       -0.00000   0.00005   0.00000   0.00036   0.00035   0.00035
    D6        3.14159   0.00001   0.00000   0.00004   0.00004  -3.14156
    D7        3.14159   0.00003   0.00000   0.00022   0.00022  -3.14137
    D8       -0.00000  -0.00001   0.00000  -0.00009  -0.00009  -0.00009
    D9        0.00000   0.00001   0.00000   0.00004   0.00004   0.00004
   D10       -3.14159  -0.00000   0.00000  -0.00002  -0.00002   3.14158
   D11        3.14159   0.00003   0.00000   0.00018   0.00018  -3.14142
   D12       -0.00000   0.00002   0.00000   0.00012   0.00012   0.00012
   D13        0.00000  -0.00002   0.00000  -0.00011  -0.00011  -0.00011
   D14       -3.14159  -0.00002   0.00000  -0.00015  -0.00015   3.14144
   D15       -3.14159  -0.00000   0.00000   0.00000   0.00001  -3.14158
   D16        0.00000  -0.00000   0.00000  -0.00003  -0.00003  -0.00003
   D17       -0.00000  -0.00001   0.00000  -0.00007  -0.00008  -0.00008
   D18        3.14159  -0.00003   0.00000  -0.00028  -0.00028   3.14131
   D19        3.14159  -0.00000   0.00000  -0.00004  -0.00004   3.14155
   D20       -0.00000  -0.00003   0.00000  -0.00025  -0.00024  -0.00024
   D21        0.00000   0.00005   0.00000   0.00043   0.00042   0.00042
   D22       -3.14159   0.00005   0.00000   0.00039   0.00038  -3.14121
   D23        3.14159   0.00008   0.00000   0.00064   0.00064  -3.14096
   D24       -0.00000   0.00007   0.00000   0.00060   0.00060   0.00059
   D25        3.14159   0.00002   0.00000   0.00018   0.00019  -3.14141
   D26       -0.00000   0.00001   0.00000   0.00009   0.00009   0.00009
   D27       -0.00000  -0.00000   0.00000  -0.00003  -0.00003  -0.00003
   D28       -3.14159  -0.00002   0.00000  -0.00012  -0.00013   3.14147
   D29        0.00000  -0.00007   0.00000  -0.00055  -0.00055  -0.00055
   D30       -3.14159  -0.00003   0.00000  -0.00023  -0.00023   3.14136
   D31       -3.14159  -0.00007   0.00000  -0.00051  -0.00052   3.14108
   D32        0.00000  -0.00003   0.00000  -0.00019  -0.00020  -0.00019
   D33        0.01343  -0.00047   0.00000  -0.00468  -0.00480   0.00863
   D34        3.12817   0.00074   0.00000   0.00702   0.00713   3.13530
   D35       -3.12817  -0.00047   0.00000  -0.00472  -0.00484  -3.13300
   D36       -0.01343   0.00074   0.00000   0.00698   0.00709  -0.00633
   D37       -3.12816  -0.00104   0.00000  -0.00677  -0.00652  -3.13468
   D38       -0.01343   0.00104   0.00000   0.00672   0.00647  -0.00696
         Item               Value     Threshold  Converged?
 Maximum Force            0.075681     0.000450     NO 
 RMS     Force            0.018708     0.000300     NO 
 Maximum Displacement     0.552766     0.001800     NO 
 RMS     Displacement     0.131604     0.001200     NO 
 Predicted change in Energy=-3.640829D-02
 GradGradGradGradGradGradGradGradGradGradGradGradGradGradGradGradGradGrad

                          Input orientation:                          
 ---------------------------------------------------------------------
 Center     Atomic      Atomic             Coordinates (Angstroms)
 Number     Number       Type             X           Y           Z
 ---------------------------------------------------------------------
      1          6           0       -0.009069    1.410949   -0.000156
      2          6           0        1.274849    0.654276    0.000766
      3          6           0        1.278591   -0.690378   -0.000042
      4          6           0        0.011859   -1.489847   -0.001749
      5          6           0       -1.298979   -0.715885   -0.002434
      6          6           0       -1.282231    0.636009   -0.001998
      7          6           0       -0.027366    2.759765    0.000494
      8          1           0        2.199860    1.205054    0.001985
      9          1           0        2.212247   -1.225852    0.000499
     10          6           0        0.120590   -2.834858   -0.002794
     11          1           0       -2.210134    1.181392   -0.002700
     12          1           0       -0.743807   -3.464683   -0.004199
     13          1           0        1.101315   -3.281243   -0.002287
     14          1           0        0.894045    3.316009    0.001661
     15          1           0       -0.962759    3.292499   -0.000201
     16          6           0       -2.668283   -1.360923   -0.003657
     17          8           0       -2.892120   -2.568481    0.004361
     18          8           0       -3.736742   -0.473558    0.003791
     19          1           0       -4.539195   -1.007614    0.008518
 ---------------------------------------------------------------------
                    Distance matrix (angstroms):
                    1          2          3          4          5
     1  C    0.000000
     2  C    1.490302   0.000000
     3  C    2.464476   1.344659   0.000000
     4  C    2.900872   2.488457   1.497921   0.000000
     5  C    2.487427   2.915809   2.577697   1.522272   0.000000
     6  C    1.490461   2.557147   2.883941   2.488761   1.351998
     7  C    1.348940   2.475651   3.689039   4.249794   3.700965
     8  H    2.218505   1.076570   2.107464   3.471291   3.991478
     9  H    3.447748   2.100856   1.076311   2.216169   3.548067
    10  C    4.247787   3.675104   2.437165   1.349399   2.550534
    11  H    2.213004   3.524623   3.959133   3.474589   2.104724
    12  H    4.930683   4.587028   3.433203   2.114477   2.804302
    13  H    4.821786   3.939344   2.596924   2.096667   3.513185
    14  H    2.108287   2.688836   4.024800   4.886157   4.589721
    15  H    2.109444   3.459352   4.570225   4.880647   4.022460
    16  C    3.841185   4.428243   4.003431   2.683242   1.513628
    17  O    4.914047   5.267809   4.574071   3.097835   2.443411
    18  O    4.176952   5.136932   5.020020   3.883926   2.449786
    19  H    5.135324   6.046904   5.826435   4.576543   3.253341
                    6          7          8          9         10
     6  C    0.000000
     7  C    2.466785   0.000000
     8  H    3.528283   2.716185   0.000000
     9  H    3.959534   4.571762   2.430939   0.000000
    10  C    3.743638   5.596580   4.543598   2.638927   0.000000
    11  H    1.076312   2.693649   4.410059   5.035105   4.643548
    12  H    4.135889   6.265545   5.520114   3.708185   1.069516
    13  H    4.585428   6.145543   4.618840   2.336409   1.077535
    14  H    3.452331   1.076294   2.482193   4.729288   6.199309
    15  H    2.675631   1.076460   3.789405   5.522333   6.222392
    16  C    2.430819   4.894336   5.503007   4.882400   3.154410
    17  O    3.586159   6.049548   6.337810   5.277995   3.024472
    18  O    2.693659   4.920758   6.169359   5.996368   4.522698
    19  H    3.648208   5.877908   7.093010   6.754972   5.005252
                   11         12         13         14         15
    11  H    0.000000
    12  H    4.871973   0.000000
    13  H    5.557049   1.854220   0.000000
    14  H    3.767299   6.975700   6.600508   0.000000
    15  H    2.452085   6.760729   6.890173   1.856955   0.000000
    16  C    2.583266   2.851213   4.230544   5.879108   4.956123
    17  O    3.811390   2.327767   4.056550   6.997305   6.170375
    18  O    2.251540   4.231377   5.593740   5.983729   4.677411
    19  H    3.196310   4.521318   6.081517   6.943620   5.593025
                   16         17         18         19
    16  C    0.000000
    17  O    1.228154   0.000000
    18  O    1.388912   2.258780   0.000000
    19  H    1.904018   2.269179   0.963934   0.000000
 Stoichiometry    C9H8O2
 Framework group  C1[X(C9H8O2)]
 Deg. of freedom    51
 Full point group                 C1      NOp   1
 Largest Abelian subgroup         C1      NOp   1
 Largest concise Abelian subgroup C1      NOp   1
                         Standard orientation:                         
 ---------------------------------------------------------------------
 Center     Atomic      Atomic             Coordinates (Angstroms)
 Number     Number       Type             X           Y           Z
 ---------------------------------------------------------------------
      1          6           0        1.928025   -0.709462    0.000023
      2          6           0        2.328305    0.726078   -0.001974
      3          6           0        1.398501    1.697454   -0.001524
      4          6           0       -0.068562    1.394985    0.000833
      5          6           0       -0.476246   -0.071679    0.002616
      6          6           0        0.473342   -1.034062    0.002527
      7          6           0        2.850230   -1.693931   -0.000257
      8          1           0        3.376703    0.970741   -0.003676
      9          1           0        1.699825    2.730724   -0.002844
     10          6           0       -0.922972    2.439428    0.001447
     11          1           0        0.183033   -2.070482    0.004005
     12          1           0       -1.982519    2.293749    0.003274
     13          1           0       -0.525953    3.441154    0.000154
     14          1           0        3.899826   -1.455701   -0.001903
     15          1           0        2.545753   -2.726432    0.001216
     16          6           0       -1.910112   -0.556544    0.004600
     17          8           0       -2.908808    0.158230   -0.003586
     18          8           0       -2.064529   -1.936830   -0.001885
     19          1           0       -3.013034   -2.108553   -0.006207
 ---------------------------------------------------------------------
 Rotational constants (GHZ):           1.7006301           0.9304900           0.6014255
 Standard basis: def2TZVP (5D, 7F)
 There are   444 symmetry adapted cartesian basis functions of A   symmetry.
 There are   389 symmetry adapted basis functions of A   symmetry.
   389 basis functions,   625 primitive gaussians,   444 cartesian basis functions
    39 alpha electrons       39 beta electrons
       nuclear repulsion energy       552.5292096743 Hartrees.
 NAtoms=   19 NActive=   19 NUniq=   19 SFac= 1.00D+00 NAtFMM=   60 NAOKFM=F Big=F
 Integral buffers will be    131072 words long.
 Raffenetti 2 integral format.
 Two-electron integral symmetry is turned on.
 One-electron integrals computed using PRISM.
   1 Symmetry operations used in ECPInt.
 ECPInt:  NShTT=   11781 NPrTT=   36312 LenC2=   11226 LenP2D=   26580.
 LDataN:  DoStor=T MaxTD1= 6 Len=  172
 NBasis=   389 RedAO= T EigKep=  9.25D-06  NBF=   389
 NBsUse=   389 1.00D-06 EigRej= -1.00D+00 NBFU=   389
 Initial guess from the checkpoint file:  "C6H4(CH2)2.chk"
 B after Tr=     0.000000    0.000000    0.000000
         Rot=    0.999996    0.000095    0.000010   -0.002873 Ang=   0.33 deg.
 ExpMin= 9.52D-02 ExpMax= 2.70D+04 ExpMxC= 9.22D+02 IAcc=2 IRadAn=         4 AccDes= 0.00D+00
 Harris functional with IExCor=  402 and IRadAn=       4 diagonalized for initial guess.
 HarFok:  IExCor=  402 AccDes= 0.00D+00 IRadAn=         4 IDoV= 1 UseB2=F ITyADJ=14
 ICtDFT=  3500011 ScaDFX=  1.000000  1.000000  1.000000  1.000000
 FoFCou: FMM=F IPFlag=           0 FMFlag=      100000 FMFlg1=           0
         NFxFlg=           0 DoJE=T BraDBF=F KetDBF=T FulRan=T
         wScrn=  0.000000 ICntrl=       500 IOpCl=  0 I1Cent=   200000004 NGrid=           0
         NMat0=    1 NMatS0=      1 NMatT0=    0 NMatD0=    1 NMtDS0=    0 NMtDT0=    0
 Petite list used in FoFCou.
 Requested convergence on RMS density matrix=1.00D-08 within 128 cycles.
 Requested convergence on MAX density matrix=1.00D-06.
 Requested convergence on             energy=1.00D-06.
 No special actions if energy rises.
 Integral accuracy reduced to 1.0D-05 until final iterations.
 Initial convergence to 1.0D-05 achieved.  Increase integral accuracy.
 SCF Done:  E(RB3LYP) =  -498.379208971     A.U. after   13 cycles
            NFock= 13  Conv=0.65D-08     -V/T= 2.0058
   1 Symmetry operations used in ECPInt.
 ECPInt:  NShTT=   11781 NPrTT=   36312 LenC2=   11226 LenP2D=   26580.
 LDataN:  DoStor=T MaxTD1= 7 Len=  274
 Calling FoFJK, ICntrl=      2127 FMM=F ISym2X=0 I1Cent= 0 IOpClX= 0 NMat=1 NMatS=1 NMatT=0.
 ***** Axes restored to original set *****
 -------------------------------------------------------------------
 Center     Atomic                   Forces (Hartrees/Bohr)
 Number     Number              X              Y              Z
 -------------------------------------------------------------------
      1        6           0.000772939   -0.010840913    0.000031700
      2        6          -0.024864772   -0.003561030   -0.000033553
      3        6          -0.028092495    0.006358754   -0.000010120
      4        6          -0.000799788    0.007653050   -0.000027057
      5        6           0.001846729   -0.004093221   -0.000543023
      6        6           0.031322553    0.004710792    0.000021867
      7        6          -0.001779402   -0.009882010   -0.000006471
      8        1           0.002528808    0.003971340    0.000002903
      9        1           0.002043339   -0.004843670    0.000003407
     10        6          -0.004306068    0.011962376   -0.000006995
     11        1          -0.001027075    0.002980427   -0.000018400
     12        1          -0.004453712   -0.005199286    0.000008275
     13        1           0.002159522   -0.002633252   -0.000001505
     14        1           0.001815941    0.004273971    0.000000323
     15        1          -0.001822705    0.004203427    0.000002327
     16        6          -0.008501884   -0.027751279    0.002246961
     17        8           0.008961368    0.031194783   -0.000949971
     18        8           0.025407847   -0.003347360   -0.000722718
     19        1          -0.001211146   -0.005156900    0.000002051
 -------------------------------------------------------------------
 Cartesian Forces:  Max     0.031322553 RMS     0.009975413

 GradGradGradGradGradGradGradGradGradGradGradGradGradGradGradGradGradGrad
 Berny optimization.
 Using GEDIIS/GDIIS optimizer.
 FormGI is forming the generalized inverse of G from B-inverse, IUseBI=4.
 Internal  Forces:  Max     0.032310471 RMS     0.008497147
 Search for a local minimum.
 Step number   2 out of a maximum of   95
 All quantities printed in internal units (Hartrees-Bohrs-Radians)
 Mixed Optimization -- RFO/linear search
 Update second derivatives using D2CorX and points    1    2
 DE= -2.95D-02 DEPred=-3.64D-02 R= 8.11D-01
 TightC=F SS=  1.41D+00  RLast= 3.00D-01 DXNew= 5.0454D-01 9.0116D-01
 Trust test= 8.11D-01 RLast= 3.00D-01 DXMaxT set to 5.05D-01
 ITU=  1  0
 Use linear search instead of GDIIS.
     Eigenvalues ---    0.00237   0.00237   0.00557   0.00600   0.00886
     Eigenvalues ---    0.01089   0.01213   0.01295   0.01354   0.01478
     Eigenvalues ---    0.01832   0.01879   0.02681   0.02681   0.02681
     Eigenvalues ---    0.02681   0.15628   0.16000   0.16000   0.16000
     Eigenvalues ---    0.16000   0.16000   0.16000   0.16063   0.19805
     Eigenvalues ---    0.22416   0.23624   0.24724   0.24999   0.25000
     Eigenvalues ---    0.25000   0.25799   0.27666   0.28070   0.28469
     Eigenvalues ---    0.28519   0.36917   0.37082   0.37230   0.37230
     Eigenvalues ---    0.37230   0.37230   0.37230   0.39373   0.50517
     Eigenvalues ---    0.51537   0.53899   0.53930   0.55443   0.57588
     Eigenvalues ---    0.78567
 RFO step:  Lambda=-2.52331254D-02 EMin= 2.36824213D-03
 Quartic linear search produced a step of  0.42599.
 Iteration  1 RMS(Cart)=  0.09436060 RMS(Int)=  0.00100755
 Iteration  2 RMS(Cart)=  0.00150870 RMS(Int)=  0.00006889
 Iteration  3 RMS(Cart)=  0.00000208 RMS(Int)=  0.00006888
 Iteration  4 RMS(Cart)=  0.00000000 RMS(Int)=  0.00006888
 Variable       Old X    -DE/DX   Delta X   Delta X   Delta X     New X
                                 (Linear)    (Quad)   (Total)
    R1        2.81626  -0.02280  -0.04001  -0.09073  -0.13075   2.68552
    R2        2.81656  -0.02465  -0.03988  -0.09834  -0.13825   2.67832
    R3        2.54913  -0.00138  -0.00504  -0.00181  -0.00685   2.54228
    R4        2.54104  -0.00467  -0.00849  -0.00926  -0.01773   2.52330
    R5        2.03442   0.00420   0.00529   0.01315   0.01844   2.05286
    R6        2.83066  -0.02275  -0.03387  -0.09259  -0.12644   2.70422
    R7        2.03393   0.00418   0.00508   0.01314   0.01822   2.05215
    R8        2.87668  -0.03221  -0.01427  -0.14069  -0.15495   2.72173
    R9        2.54999  -0.00465  -0.00467  -0.01004  -0.01471   2.53528
   R10        2.55491   0.00060  -0.00258   0.00270   0.00011   2.55501
   R11        2.86034  -0.02015  -0.02123  -0.08434  -0.10557   2.75478
   R12        2.03393   0.00240   0.00508   0.00684   0.01192   2.04585
   R13        2.03390   0.00376   0.00507   0.01166   0.01673   2.05063
   R14        2.03421   0.00367   0.00520   0.01128   0.01648   2.05069
   R15        2.02109   0.00666  -0.00039   0.02361   0.02322   2.04431
   R16        2.03625   0.00306   0.00607   0.00886   0.01492   2.05117
   R17        2.32088  -0.03231  -0.02435  -0.04685  -0.07119   2.24968
   R18        2.62466  -0.02405  -0.03308  -0.06696  -0.10004   2.52463
   R19        1.82157   0.00387   0.00317   0.00833   0.01149   1.83306
    A1        2.06227  -0.00855  -0.01368  -0.04019  -0.05391   2.00836
    A2        2.11691   0.00655   0.00959   0.03083   0.04044   2.15735
    A3        2.10400   0.00200   0.00409   0.00936   0.01347   2.11748
    A4        2.10613   0.00266   0.00500   0.01092   0.01591   2.12204
    A5        2.07199  -0.00349  -0.00954  -0.01966  -0.02920   2.04279
    A6        2.10507   0.00083   0.00455   0.00874   0.01329   2.11835
    A7        2.13101   0.00529   0.01560   0.02242   0.03804   2.16905
    A8        2.09430   0.00059  -0.00004   0.01096   0.01091   2.10521
    A9        2.05787  -0.00588  -0.01556  -0.03338  -0.04895   2.00892
   A10        2.04524  -0.00735  -0.02094  -0.03235  -0.05325   1.99199
   A11        2.05313   0.01157  -0.01758   0.06507   0.04747   2.10059
   A12        2.18482  -0.00422   0.03852  -0.03272   0.00578   2.19060
   A13        2.09176   0.00395  -0.00112   0.02059   0.01947   2.11124
   A14        2.16800  -0.01878   0.03135  -0.10545  -0.07410   2.09390
   A15        2.02342   0.01483  -0.03023   0.08486   0.05463   2.07805
   A16        2.12996   0.00400   0.01515   0.01862   0.03374   2.16370
   A17        2.06345  -0.00408  -0.01318  -0.02339  -0.03656   2.02689
   A18        2.08978   0.00008  -0.00197   0.00477   0.00282   2.09259
   A19        2.10036   0.00183   0.00254   0.01305   0.01559   2.11595
   A20        2.10207   0.00188   0.00327   0.01327   0.01655   2.11862
   A21        2.08075  -0.00371  -0.00581  -0.02633  -0.03214   2.04862
   A22        2.11981   0.00111   0.01083   0.00515   0.01598   2.13579
   A23        2.07860   0.00097  -0.00673   0.00939   0.00266   2.08125
   A24        2.08478  -0.00208  -0.00410  -0.01453  -0.01863   2.06614
   A25        2.19429   0.00077   0.04283  -0.00923   0.03328   2.22757
   A26        2.00827  -0.00878  -0.03675  -0.03313  -0.07020   1.93808
   A27        2.08052   0.00802  -0.00599   0.04288   0.03657   2.11709
   A28        1.86133  -0.00660  -0.02100  -0.04363  -0.06464   1.79669
    D1       -0.00000  -0.00000  -0.00000  -0.00016  -0.00016  -0.00016
    D2        3.14147  -0.00000  -0.00005  -0.00011  -0.00016   3.14131
    D3       -3.14147   0.00000   0.00005   0.00001   0.00006  -3.14140
    D4        0.00001   0.00000   0.00001   0.00006   0.00006   0.00007
    D5        0.00035   0.00001   0.00015   0.00037   0.00051   0.00086
    D6       -3.14156   0.00001   0.00002   0.00021   0.00021  -3.14134
    D7       -3.14137   0.00001   0.00010   0.00020   0.00030  -3.14107
    D8       -0.00009   0.00000  -0.00004   0.00004  -0.00000  -0.00009
    D9        0.00004  -0.00000   0.00002  -0.00002  -0.00000   0.00004
   D10        3.14158  -0.00000  -0.00001  -0.00004  -0.00005   3.14153
   D11       -3.14142   0.00001   0.00008   0.00016   0.00024  -3.14118
   D12        0.00012   0.00001   0.00005   0.00014   0.00019   0.00031
   D13       -0.00011  -0.00000  -0.00005   0.00001  -0.00003  -0.00014
   D14        3.14144   0.00000  -0.00006   0.00014   0.00007   3.14152
   D15       -3.14158  -0.00000   0.00000  -0.00004  -0.00003   3.14157
   D16       -0.00003   0.00000  -0.00001   0.00009   0.00007   0.00004
   D17       -0.00008  -0.00000  -0.00003  -0.00005  -0.00009  -0.00017
   D18        3.14131   0.00001  -0.00012   0.00030   0.00017   3.14148
   D19        3.14155  -0.00001  -0.00002  -0.00017  -0.00019   3.14136
   D20       -0.00024   0.00000  -0.00010   0.00017   0.00007  -0.00018
   D21        0.00042   0.00001   0.00018   0.00025   0.00042   0.00083
   D22       -3.14121   0.00001   0.00016   0.00048   0.00062  -3.14060
   D23       -3.14096  -0.00000   0.00027  -0.00013   0.00014  -3.14082
   D24        0.00059   0.00000   0.00025   0.00009   0.00034   0.00093
   D25       -3.14141  -0.00002   0.00008  -0.00060  -0.00052   3.14126
   D26        0.00009  -0.00001   0.00004  -0.00021  -0.00017  -0.00008
   D27       -0.00003  -0.00001  -0.00001  -0.00022  -0.00023  -0.00027
   D28        3.14147   0.00000  -0.00005   0.00016   0.00011   3.14157
   D29       -0.00055  -0.00002  -0.00024  -0.00043  -0.00068  -0.00124
   D30        3.14136  -0.00001  -0.00010  -0.00027  -0.00037   3.14099
   D31        3.14108  -0.00002  -0.00022  -0.00064  -0.00088   3.14020
   D32       -0.00019  -0.00002  -0.00008  -0.00047  -0.00057  -0.00076
   D33        0.00863  -0.00047  -0.00204  -0.02090  -0.02302  -0.01439
   D34        3.13530   0.00047   0.00304   0.02085   0.02396  -3.12392
   D35       -3.13300  -0.00047  -0.00206  -0.02069  -0.02282   3.12736
   D36       -0.00633   0.00048   0.00302   0.02106   0.02416   0.01783
   D37       -3.13468  -0.00042  -0.00278  -0.01927  -0.02187   3.12664
   D38       -0.00696   0.00041   0.00276   0.01914   0.02173   0.01476
         Item               Value     Threshold  Converged?
 Maximum Force            0.032310     0.000450     NO 
 RMS     Force            0.008497     0.000300     NO 
 Maximum Displacement     0.386945     0.001800     NO 
 RMS     Displacement     0.094390     0.001200     NO 
 Predicted change in Energy=-1.400046D-02
 GradGradGradGradGradGradGradGradGradGradGradGradGradGradGradGradGradGrad

                          Input orientation:                          
 ---------------------------------------------------------------------
 Center     Atomic      Atomic             Coordinates (Angstroms)
 Number     Number       Type             X           Y           Z
 ---------------------------------------------------------------------
      1          6           0       -0.020627    1.409138    0.001333
      2          6           0        1.178406    0.646337   -0.003192
      3          6           0        1.157902   -0.688781   -0.003352
      4          6           0       -0.036800   -1.476476    0.001051
      5          6           0       -1.251917   -0.703258    0.006038
      6          6           0       -1.216415    0.648331    0.005367
      7          6           0       -0.047475    2.754187    0.001458
      8          1           0        2.114478    1.197575   -0.006633
      9          1           0        2.083824   -1.256183   -0.006913
     10          6           0        0.034405   -2.816199    0.000408
     11          1           0       -2.140465    1.212409    0.008605
     12          1           0       -0.847239   -3.443085    0.003947
     13          1           0        1.008272   -3.295498   -0.003569
     14          1           0        0.868955    3.335295   -0.002018
     15          1           0       -0.984938    3.300780    0.004935
     16          6           0       -2.544267   -1.377703    0.012115
     17          8           0       -2.752561   -2.549757    0.000075
     18          8           0       -3.546433   -0.494433   -0.005931
     19          1           0       -4.334432   -1.060051   -0.013866
 ---------------------------------------------------------------------
                    Distance matrix (angstroms):
                    1          2          3          4          5
     1  C    0.000000
     2  C    1.421114   0.000000
     3  C    2.406287   1.335275   0.000000
     4  C    2.885660   2.446034   1.431013   0.000000
     5  C    2.445060   2.779922   2.409882   1.440278   0.000000
     6  C    1.417305   2.394837   2.724945   2.430291   1.352056
     7  C    1.345317   2.438409   3.647874   4.230677   3.661234
     8  H    2.145576   1.086327   2.115038   3.431998   3.865999
     9  H    3.395986   2.106983   1.085951   2.132051   3.381282
    10  C    4.225695   3.646629   2.405861   1.341613   2.473696
    11  H    2.128959   3.366820   3.807084   3.414025   2.111707
    12  H    4.922130   4.563624   3.406881   2.127056   2.769552
    13  H    4.815834   3.945505   2.611008   2.097865   3.439223
    14  H    2.121661   2.706705   4.034436   4.896278   4.561587
    15  H    2.123256   3.424353   4.528623   4.870437   4.012930
    16  C    3.759702   4.237365   3.765755   2.509435   1.457765
    17  O    4.810023   5.066313   4.330701   2.920152   2.379396
    18  O    4.006862   4.860604   4.708349   3.644445   2.304030
    19  H    4.970517   5.770897   5.504879   4.317785   3.103159
                    6          7          8          9         10
     6  C    0.000000
     7  C    2.408540   0.000000
     8  H    3.375894   2.664047   0.000000
     9  H    3.810367   4.541539   2.453949   0.000000
    10  C    3.683414   5.570988   4.520745   2.575621   0.000000
    11  H    1.082619   2.599564   4.254996   4.892730   4.578188
    12  H    4.108038   6.248665   5.505234   3.657019   1.081802
    13  H    4.528034   6.141117   4.627246   2.305565   1.085431
    14  H    3.401264   1.085146   2.474104   4.749483   6.207846
    15  H    2.662531   1.085179   3.745662   5.493938   6.201331
    16  C    2.422406   4.827691   5.323186   4.629725   2.952787
    17  O    3.547892   5.953933   6.142525   5.006396   2.799673
    18  O    2.595192   4.774547   5.908367   5.681554   4.267673
    19  H    3.555414   5.738175   6.832669   6.421256   4.708608
                   11         12         13         14         15
    11  H    0.000000
    12  H    4.831778   0.000000
    13  H    5.498720   1.861386   0.000000
    14  H    3.682847   6.992266   6.632256   0.000000
    15  H    2.386744   6.745271   6.890852   1.854228   0.000000
    16  C    2.621402   2.673158   4.037167   5.819160   4.931507
    17  O    3.811644   2.104352   3.834058   6.910081   6.111735
    18  O    2.211395   3.997536   5.347084   5.844868   4.578757
    19  H    3.158809   4.223705   5.791530   6.811347   5.498755
                   16         17         18         19
    16  C    0.000000
    17  O    1.190480   0.000000
    18  O    1.335975   2.203322   0.000000
    19  H    1.818315   2.172956   0.970015   0.000000
 Stoichiometry    C9H8O2
 Framework group  C1[X(C9H8O2)]
 Deg. of freedom    51
 Full point group                 C1      NOp   1
 Largest Abelian subgroup         C1      NOp   1
 Largest concise Abelian subgroup C1      NOp   1
                         Standard orientation:                         
 ---------------------------------------------------------------------
 Center     Atomic      Atomic             Coordinates (Angstroms)
 Number     Number       Type             X           Y           Z
 ---------------------------------------------------------------------
      1          6           0        1.967402   -0.530796   -0.000680
      2          6           0        2.159367    0.877287    0.003176
      3          6           0        1.126774    1.723876    0.003177
      4          6           0       -0.246186    1.320436   -0.000755
      5          6           0       -0.440586   -0.106655   -0.005063
      6          6           0        0.614270   -0.952429   -0.004239
      7          6           0        2.976996   -1.419951   -0.000622
      8          1           0        3.184765    1.235973    0.006240
      9          1           0        1.291545    2.797249    0.006224
     10          6           0       -1.223067    2.240018   -0.000315
     11          1           0        0.448171   -2.022227   -0.006964
     12          1           0       -2.271071    1.971743   -0.003513
     13          1           0       -0.960067    3.293099    0.003136
     14          1           0        4.012514   -1.095552    0.002489
     15          1           0        2.788884   -2.488697   -0.003582
     16          6           0       -1.790142   -0.657787   -0.010609
     17          8           0       -2.819513   -0.059879    0.001382
     18          8           0       -1.762986   -1.993356    0.008028
     19          1           0       -2.703732   -2.229697    0.016268
 ---------------------------------------------------------------------
 Rotational constants (GHZ):           1.8436327           0.9823613           0.6408825
 Standard basis: def2TZVP (5D, 7F)
 There are   444 symmetry adapted cartesian basis functions of A   symmetry.
 There are   389 symmetry adapted basis functions of A   symmetry.
   389 basis functions,   625 primitive gaussians,   444 cartesian basis functions
    39 alpha electrons       39 beta electrons
       nuclear repulsion energy       569.0644543606 Hartrees.
 NAtoms=   19 NActive=   19 NUniq=   19 SFac= 1.00D+00 NAtFMM=   60 NAOKFM=F Big=F
 Integral buffers will be    131072 words long.
 Raffenetti 2 integral format.
 Two-electron integral symmetry is turned on.
 One-electron integrals computed using PRISM.
   1 Symmetry operations used in ECPInt.
 ECPInt:  NShTT=   11781 NPrTT=   36312 LenC2=   11281 LenP2D=   26912.
 LDataN:  DoStor=T MaxTD1= 6 Len=  172
 NBasis=   389 RedAO= T EigKep=  5.86D-06  NBF=   389
 NBsUse=   389 1.00D-06 EigRej= -1.00D+00 NBFU=   389
 Initial guess from the checkpoint file:  "C6H4(CH2)2.chk"
 B after Tr=     0.000000    0.000000   -0.000000
         Rot=    0.998813    0.000003    0.000003   -0.048700 Ang=   5.58 deg.
 ExpMin= 9.52D-02 ExpMax= 2.70D+04 ExpMxC= 9.22D+02 IAcc=2 IRadAn=         4 AccDes= 0.00D+00
 Harris functional with IExCor=  402 and IRadAn=       4 diagonalized for initial guess.
 HarFok:  IExCor=  402 AccDes= 0.00D+00 IRadAn=         4 IDoV= 1 UseB2=F ITyADJ=14
 ICtDFT=  3500011 ScaDFX=  1.000000  1.000000  1.000000  1.000000
 FoFCou: FMM=F IPFlag=           0 FMFlag=      100000 FMFlg1=           0
         NFxFlg=           0 DoJE=T BraDBF=F KetDBF=T FulRan=T
         wScrn=  0.000000 ICntrl=       500 IOpCl=  0 I1Cent=   200000004 NGrid=           0
         NMat0=    1 NMatS0=      1 NMatT0=    0 NMatD0=    1 NMtDS0=    0 NMtDT0=    0
 Petite list used in FoFCou.
 Requested convergence on RMS density matrix=1.00D-08 within 128 cycles.
 Requested convergence on MAX density matrix=1.00D-06.
 Requested convergence on             energy=1.00D-06.
 No special actions if energy rises.
 Integral accuracy reduced to 1.0D-05 until final iterations.
 Initial convergence to 1.0D-05 achieved.  Increase integral accuracy.
 SCF Done:  E(RB3LYP) =  -498.380953296     A.U. after   14 cycles
            NFock= 14  Conv=0.33D-08     -V/T= 2.0038
   1 Symmetry operations used in ECPInt.
 ECPInt:  NShTT=   11781 NPrTT=   36312 LenC2=   11281 LenP2D=   26912.
 LDataN:  DoStor=T MaxTD1= 7 Len=  274
 Calling FoFJK, ICntrl=      2127 FMM=F ISym2X=0 I1Cent= 0 IOpClX= 0 NMat=1 NMatS=1 NMatT=0.
 ***** Axes restored to original set *****
 -------------------------------------------------------------------
 Center     Atomic                   Forces (Hartrees/Bohr)
 Number     Number              X              Y              Z
 -------------------------------------------------------------------
      1        6           0.000518710    0.009368767   -0.000195258
      2        6           0.022660563    0.001940991   -0.000073031
      3        6           0.021743758   -0.005602877   -0.000125782
      4        6           0.001027595   -0.001682809    0.000118572
      5        6          -0.000934434    0.005272090    0.001400041
      6        6          -0.020874019   -0.000819542    0.000267612
      7        6           0.000037673    0.009903351   -0.000007121
      8        1           0.000534590   -0.003518639    0.000009218
      9        1           0.001137245    0.003276186   -0.000016213
     10        6           0.002121202   -0.013423989    0.000035501
     11        1          -0.000071946   -0.002987847    0.000068853
     12        1           0.004810157    0.001793735   -0.000033529
     13        1          -0.001207295    0.000614440    0.000006046
     14        1          -0.001897979   -0.000650454    0.000038162
     15        1           0.002058106   -0.000974232   -0.000019456
     16        6           0.006835433    0.022793772   -0.003980793
     17        8          -0.008392833   -0.031960223    0.001452897
     18        8          -0.025037849    0.001752457    0.001127190
     19        1          -0.005068678    0.004904824   -0.000072910
 -------------------------------------------------------------------
 Cartesian Forces:  Max     0.031960223 RMS     0.008676941

 GradGradGradGradGradGradGradGradGradGradGradGradGradGradGradGradGradGrad
 Berny optimization.
 Using GEDIIS/GDIIS optimizer.
 FormGI is forming the generalized inverse of G from B-inverse, IUseBI=4.
 Internal  Forces:  Max     0.032918872 RMS     0.008806072
 Search for a local minimum.
 Step number   3 out of a maximum of   95
 All quantities printed in internal units (Hartrees-Bohrs-Radians)
 Mixed Optimization -- RFO/linear search
 Update second derivatives using D2CorX and points    2    3
 DE= -1.74D-03 DEPred=-1.40D-02 R= 1.25D-01
 Trust test= 1.25D-01 RLast= 3.85D-01 DXMaxT set to 5.05D-01
 ITU=  0  1  0
 Use linear search instead of GDIIS.
     Eigenvalues ---    0.00237   0.00237   0.00563   0.00627   0.00944
     Eigenvalues ---    0.01137   0.01252   0.01295   0.01395   0.01511
     Eigenvalues ---    0.01880   0.01913   0.02681   0.02681   0.02681
     Eigenvalues ---    0.02681   0.15821   0.16000   0.16000   0.16000
     Eigenvalues ---    0.16000   0.16000   0.16042   0.16324   0.22170
     Eigenvalues ---    0.23106   0.24605   0.24772   0.24995   0.25000
     Eigenvalues ---    0.25403   0.27671   0.27945   0.28221   0.28472
     Eigenvalues ---    0.34130   0.36988   0.37057   0.37230   0.37230
     Eigenvalues ---    0.37230   0.37230   0.37256   0.42938   0.50212
[...]
 01625307,0.00001145,-0.02501234,-0.03805427,-0.00000607,-0.05342020,-0
 .11733619,0.00000690,-0.01577137,0.77893868,-0.00000279,0.00001465,-0.
 01181595,-0.00001189,-0.00000779,0.00626579,0.00006005,0.00000816,-0.0
 6866500,-0.00024916,0.00034882,0.15575433,0.00873932,-0.03079096,-0.00
 001193,0.00264865,0.00285277,-0.00000136,-0.03682537,0.00655070,0.0000
 2552,-0.18741180,0.03789387,0.00010124,0.56023776,-0.02533706,-0.03751
 560,0.00001289,0.00356455,-0.00716070,-0.00000536,-0.00782503,0.017415
 88,0.00001228,0.04049086,-0.12199687,-0.00003390,-0.00319111,0.7482901
 7,-0.00000645,-0.00000101,0.00920349,-0.00000223,-0.00000250,-0.002962
 22,0.00002207,-0.00000423,0.00590308,0.00010138,-0.00002905,-0.0692055
 5,-0.00026028,0.00014214,0.14388709,-0.22154868,-0.05566336,0.00006594
 ,-0.03826615,-0.00799426,0.00002289,0.00037179,-0.00105177,-0.00000098
 ,0.01080933,0.02731044,0.00000577,-0.12221692,0.00959593,0.00002892,0.
 65360077,-0.04830212,-0.11952709,0.00000065,0.00720718,0.02004297,0.00
 000300,-0.00186917,-0.00543182,0.00000170,0.02513374,-0.03674936,-0.00
 003862,-0.00854637,-0.43519449,-0.00013958,-0.04557880,0.77554426,0.00
 006950,0.00000974,-0.07243871,0.00002847,0.00000938,0.00669548,-0.0000
 0230,-0.00000077,-0.00331622,0.00000950,-0.00003454,0.00649418,0.00001
 730,-0.00016960,-0.06024592,-0.00033275,0.00029332,0.14550890,-0.11491
 884,0.00658710,0.00003775,0.00314059,0.03798955,0.00001729,-0.00742409
 ,-0.00022276,0.00000504,-0.00186065,0.00027486,0.00000227,-0.00863065,
 -0.00259901,0.00000408,0.00300847,-0.03499398,-0.00001352,0.65401400,0
 .00806657,-0.45756384,-0.00015844,0.01869949,-0.03999943,-0.00002910,0
 .00448643,0.01254896,0.00000230,0.00096857,-0.01133102,-0.00000760,-0.
 00203522,0.01239284,0.00000419,-0.02049466,-0.04384787,-0.00000547,-0.
 00195933,0.78097146,0.00003757,-0.00015575,-0.05459201,0.00000973,-0.0
 0003999,0.00737291,0.00000703,0.00000425,0.00215613,0.00000127,-0.0000
 0448,-0.00015952,0.00000621,0.00000577,0.00244100,-0.00000658,0.000000
 18,0.00594439,-0.00031103,0.00025909,0.10341969,-0.01916917,-0.0151126
 8,0.00000592,-0.26738607,-0.11834426,0.00007646,0.00334048,0.00137462,
 0.00000096,0.00147732,0.00110331,0.00000579,0.00009779,0.00040659,-0.0
 0000025,-0.00271778,0.00416761,0.00000453,0.00117454,-0.00139922,-0.00
 000186,0.28224005,0.01465087,0.00997538,-0.00000514,-0.11717085,-0.123
 95993,0.00002752,-0.03045636,-0.01305363,0.00000955,0.00268666,-0.0040
 2822,-0.00000825,0.00026494,-0.00025671,0.00000011,0.00295110,-0.00199
 089,-0.00000344,0.00069230,0.00158658,0.00000076,0.12775351,0.13098188
 ,0.00001881,0.00001115,0.00269198,0.00007743,0.00002827,-0.03582693,-0
 .00001309,-0.00000868,0.00388665,0.00000743,-0.00000710,0.01116150,0.0
 0000082,-0.00000015,-0.00026784,0.00000330,-0.00000431,0.00258010,-0.0
 0000124,0.00000179,-0.00118894,-0.00008724,-0.00002512,0.02418327,0.00
 142375,-0.00092055,0.00000538,0.00395307,-0.00186585,-0.00000039,-0.26
 178039,0.12090518,0.00018146,-0.02044013,0.01487511,0.00002010,-0.0024
 9362,-0.00400667,0.00000209,0.00022597,-0.00065921,-0.00000033,0.00013
 971,-0.00002637,-0.00000013,0.00107864,0.00021091,-0.00000401,0.276652
 17,-0.00240217,-0.00474397,-0.00000579,0.02977632,-0.01362719,-0.00002
 484,0.12072043,-0.12782808,-0.00011002,-0.01446706,0.00878469,0.000010
 57,-0.00222282,-0.00169641,-0.00000022,-0.00035521,-0.00033237,0.00000
 023,0.00159906,-0.00012536,-0.00000090,-0.00021888,0.00095875,0.000003
 26,-0.12996254,0.13774509,0.00000460,-0.00000603,0.01128845,0.00001301
 ,-0.00000580,0.00481111,0.00018078,-0.00011193,-0.03778778,0.00000823,
 -0.00000428,0.00272877,0.00000198,-0.00000020,0.00246359,-0.00000007,-
 0.00000009,-0.00015861,0.00000056,0.00000040,-0.00013239,-0.00000404,0
 .00000296,-0.00608362,-0.00020204,0.00012469,0.02506288,-0.00229287,0.
 00158829,0.00000059,-0.00623440,-0.00243079,0.00000354,0.00415454,-0.0
 3560531,-0.00001732,-0.11678435,0.02459166,0.00005177,0.00333535,0.035
 07177,0.00001949,-0.00796849,-0.00084060,0.00000617,0.00208611,-0.0009
 8525,-0.00000151,0.00008406,-0.00165660,-0.00000056,0.00103520,-0.0018
 7099,-0.00000251,0.66703803,0.00031205,-0.00986176,-0.00000426,-0.0050
 2896,0.01157786,0.00000702,-0.01987048,-0.04798874,-0.00002049,0.02069
 865,-0.46059992,-0.00025141,0.01932584,-0.02899735,-0.00003052,0.00404
 945,0.00982667,0.00000157,0.00026595,0.00573554,0.00000206,-0.00011482
 ,-0.00038940,0.00000035,0.00188522,0.00112068,-0.00000016,0.01527265,0
 .78767412,0.00000121,-0.00000513,-0.00043700,0.00000233,0.00000730,0.0
 0244186,-0.00000922,-0.00000769,0.00699774,0.00005579,-0.00025510,-0.0
 5481481,0.00001016,-0.00003729,0.00472097,0.00000779,0.00000314,0.0021
 0306,-0.00000058,0.00000319,-0.00000215,-0.00000011,0.00000100,-0.0001
 1695,-0.00000019,0.00000268,-0.00142189,-0.00039043,0.00037425,0.10819
 551,-0.01934905,0.01427744,0.00002134,-0.00219060,-0.00378960,0.000001
 32,0.00020917,-0.00049147,-0.00000041,0.00093024,-0.00150024,0.0000048
 2,0.00360084,-0.00076800,0.00000111,-0.26546526,0.12809168,0.00020367,
 0.00122339,0.00126279,-0.00000142,-0.00090271,0.00068670,0.00000078,-0
 .00000312,0.00009652,-0.00000027,0.00030809,-0.00006186,-0.00000007,0.
 28426344,-0.01473787,0.01018735,0.00001150,-0.00286304,-0.00197505,-0.
 00000004,-0.00028181,-0.00017043,-0.00000011,-0.00299158,-0.00473417,-
 0.00000410,0.02884545,-0.01341153,-0.00002574,0.12336023,-0.13212676,-
 0.00011624,-0.00129497,0.00134051,0.00000195,-0.00077352,0.00057516,0.
 00000056,0.00010628,0.00002857,0.00000024,0.00172227,-0.00015484,-0.00
 000109,-0.13253349,0.14087281,0.00000835,-0.00000938,0.00486710,0.0000
 0183,0.00000117,0.00256389,-0.00000028,-0.00000019,-0.00003902,0.00000
 342,-0.00000471,0.00967746,0.00002245,-0.00000920,0.00590463,0.0001988
 4,-0.00012023,-0.04159336,-0.00000256,0.00000084,-0.00167089,0.0000004
 5,-0.00000037,0.00013666,-0.00000020,0.00000021,-0.00055274,0.00000126
 ,-0.00000042,0.00011022,-0.00022219,0.00013285,0.02611122,0.00007141,-
 0.00000861,-0.00000044,0.00061849,-0.00006100,-0.00000045,0.00000145,0
 .00134729,0.00001043,0.00767155,0.00343081,0.00000209,-0.00021551,-0.0
 0131117,-0.00000477,-0.00021347,0.00008418,-0.00000031,-0.00019554,0.0
 0017482,0.00000015,0.00001395,0.00014312,-0.00000096,0.00038335,0.0000
 9994,-0.00000017,-0.24961091,-0.14743795,0.00006863,0.00006737,0.00006
 842,0.00000105,0.26070128,-0.00014783,0.00034939,0.00000007,-0.0018106
 5,-0.00019040,0.00000088,0.00271807,-0.00467720,-0.00001051,-0.0274928
 7,-0.01287796,0.00000871,-0.00020064,0.00213297,0.00000452,0.00003120,
 -0.00028773,0.00000022,0.00018977,-0.00006045,-0.00000011,0.00002735,-
 0.00048710,0.00000063,-0.00026383,0.00006506,0.00000022,-0.13792511,-0
 .16152592,0.00003641,0.00001880,-0.00001505,-0.00000027,0.15390918,0.1
 6785651,-0.00000063,0.00000105,-0.00020068,-0.00000216,-0.00000058,-0.
 00010705,0.00000851,-0.00001113,0.01113578,-0.00001791,-0.00001563,0.0
 0593244,-0.00000207,0.00000728,-0.00567240,0.00000047,-0.00000016,-0.0
 0031595,0.00000054,0.00000003,-0.00003269,-0.00000070,-0.00000007,-0.0
 0123795,-0.00000006,-0.00000003,-0.00007010,0.00008050,0.00005486,-0.0
 3612550,0.00000030,-0.00000047,0.00062847,-0.00008918,-0.00004042,0.02
 266062,0.00010321,-0.00031848,0.00000034,0.00040716,0.00043570,-0.0000
 0010,0.00048305,-0.00302358,-0.00000715,-0.00102692,0.00039891,0.00000
 388,0.00169206,-0.00060892,0.00000617,-0.00035748,-0.00007381,0.000000
 55,0.00013193,0.00001184,-0.00000012,0.00001156,0.00009481,0.00000042,
 0.00069574,0.00015244,-0.00000018,-0.28930455,0.10700461,0.00023713,0.
 00005314,0.00006937,-0.00000082,-0.01290728,0.01193856,0.00001554,0.30
 215636,0.00028231,0.00009181,-0.00000093,-0.00057173,0.00020993,0.0000
 0046,0.00269972,0.00072406,0.00000334,0.03037822,-0.01228976,-0.000029
 43,-0.00202332,-0.00411206,-0.00000757,0.00171659,-0.00028799,-0.00000
 111,-0.00020505,0.00004998,0.00000020,-0.00000279,-0.00000424,-0.00000
 031,-0.00118177,-0.00027458,0.00000029,0.10034747,-0.10454720,-0.00011
 251,-0.00006531,-0.00048457,0.00000069,-0.01325576,0.01065632,0.000010
 21,-0.11625864,0.10995846,0.00000071,-0.00000069,0.00089623,-0.0000004
 0,0.00000026,-0.00001968,-0.00000319,0.00000658,-0.00745486,0.00002175
 ,-0.00000959,0.00447619,0.00000165,-0.00000892,0.01015560,0.00000199,0
 .00000002,0.00025835,-0.00000034,0.00000007,-0.00008381,0.00000029,-0.
 00000026,0.00053617,-0.00000121,-0.00000029,0.00031357,0.00023403,-0.0
 0011793,-0.03262545,-0.00000092,0.00000005,-0.00132075,0.00000399,-0.0
 0000452,0.00356046,-0.00026045,0.00013193,0.02138807,0.00311071,0.0018
 6047,0.00000206,0.00080187,0.00163456,-0.00000325,0.00013497,-0.000484
 16,-0.00000047,0.00001727,0.00030700,0.00000040,0.00009808,0.00000189,
 -0.00000043,0.00072145,0.00022971,0.00000573,-0.26167639,-0.12803581,0
 .00008020,0.00031755,-0.00045953,-0.00000023,0.00000559,-0.00007192,0.
 00000018,0.00008104,-0.00010355,-0.00000011,0.00043747,0.00027228,-0.0
 0000020,-0.00001904,0.00000405,-0.00000006,0.00001409,-0.00001010,0.00
 000006,0.27102353,-0.02859889,-0.01254378,0.00000944,-0.00190785,0.001
 66685,0.00000403,0.00041921,0.00006615,-0.00000008,-0.00023429,0.00019
 544,0.00000019,-0.00180702,-0.00010197,0.00000098,0.00231656,-0.004933
 98,-0.00000766,-0.12320270,-0.13600326,0.00002984,0.00106014,-0.000118
 49,-0.00000073,0.00000857,-0.00002027,-0.00000019,0.00017744,0.0000459
 2,-0.00000008,-0.00016458,0.00004768,0.00000019,-0.00002329,0.00002809
 ,0.00000010,0.00001777,-0.00002650,-0.00000008,0.13892797,0.14204284,-
 0.00000941,-0.00000947,0.00569247,-0.00000468,0.00000217,-0.00629921,0
 .00000017,0.00000039,-0.00025017,0.00000020,-0.00000033,0.00025844,-0.
 00000244,-0.00000237,-0.00059735,0.00000719,-0.00000442,0.01078212,0.0
 0008138,0.00003298,-0.03257149,0.00000040,0.00000012,0.00029002,0.0000
 0030,-0.00000016,0.00042897,0.00000034,0.00000033,0.00001188,-0.000000
 49,-0.00000007,-0.00003641,-0.00000013,0.00000007,-0.00009200,0.000000
 10,-0.00000007,0.00011779,-0.00008801,-0.00003179,0.02044257,0.0014603
 0,-0.00104423,0.00000128,0.00116566,-0.00038067,0.00000485,0.00001453,
 0.00006465,0.00000034,0.00010848,-0.00030849,-0.00000011,0.00019567,0.
 00036913,0.00000024,0.00079017,-0.00190341,-0.00000516,-0.27252740,0.1
 2300831,0.00018324,0.00032168,-0.00026088,-0.00000041,0.00002153,0.000
 05484,-0.00000065,0.00006345,0.00010204,0.,0.00041256,0.00033193,0.000
 00008,0.00000841,0.00001482,0.00000013,-0.00001879,-0.00001248,-0.0000
 0013,-0.01510992,0.01291325,0.00001498,0.28305773,0.02933664,-0.012220
 32,-0.00002254,-0.00276649,-0.00440336,-0.00000411,0.00180619,-0.00023
 937,-0.00000125,0.00023601,0.00020171,-0.00000023,-0.00045158,0.000090
 44,0.00000042,0.00222046,0.00150343,0.00000169,0.11779066,-0.12544873,
 -0.00010275,0.00024695,0.00003760,-0.00000002,-0.00003868,-0.00048668,
 0.00000024,-0.00019022,-0.00001301,0.00000016,-0.00110539,-0.00018330,
 0.00000052,0.00001480,-0.00002520,-0.00000013,-0.00001676,0.00003879,0
 .00000010,-0.01401235,0.01016969,0.00001071,-0.13305299,0.13095316,0.0
 0001245,-0.00000544,0.00432140,0.00000426,-0.00000539,0.01010834,0.000
 00062,-0.00000011,0.00051850,0.00000019,0.00000009,0.00030551,0.000000
 43,0.00000070,0.00022754,-0.00000374,0.00000346,-0.00691289,0.00018158
 ,-0.00010527,-0.03097238,-0.00000024,0.00000026,-0.00024652,-0.0000008
 2,0.00000035,-0.00122114,-0.00000029,-0.00000015,-0.00008501,-0.000000
 24,-0.00000052,0.00033673,0.00000021,-0.00000011,0.00018359,-0.0000001
 6,0.00000014,-0.00020117,0.00000480,-0.00000452,0.00292278,-0.00019892
 ,0.00011727,0.02030662,0.00051145,0.00945776,0.00001109,-0.00149050,0.
 00123400,0.00000078,-0.00018735,0.00305131,0.00000612,-0.02807510,-0.0
 0398554,0.00001295,-0.17678839,-0.02299253,0.00006739,0.00359530,-0.02
 815802,0.00000764,0.00477580,-0.00158948,-0.00000434,0.00020299,0.0000
 9659,-0.00000130,-0.00005905,-0.00070237,-0.00000008,-0.00035938,-0.00
 288982,-0.00000115,0.00152145,0.00417603,-0.00000724,0.00131408,0.0004
 5641,-0.00000221,-0.00001452,-0.00080292,-0.00000095,0.00005902,0.0005
 4069,0.00000053,-0.00007688,0.00014026,0.00000018,0.58154747,0.0028922
 3,-0.00262120,-0.00000810,-0.00089769,0.00012834,0.00000035,0.00578178
 ,-0.00272816,-0.00000265,0.00725860,0.02050933,-0.00000547,-0.01902492
 ,-0.09576357,0.00000081,-0.03508212,-0.02672885,0.00002570,0.00070816,
 -0.00150843,-0.00000112,0.00029969,-0.00012545,-0.00000078,0.00146755,
 0.00042490,-0.00000083,0.00027954,-0.00034681,0.00000118,0.00007426,-0
 .00189411,0.00000057,0.00583453,-0.00463771,-0.00001425,-0.00224501,-0
 .00195138,0.00000230,0.00020221,-0.00023771,0.00000098,0.00001235,-0.0
 0026374,-0.00000086,0.09185948,0.91861168,0.00000902,-0.00001239,0.013
 53090,0.00000089,0.00000056,-0.00048304,-0.00000202,-0.00000591,0.0023
 3587,0.00002620,0.00000518,0.00018167,0.00006916,-0.00000746,-0.081824
 15,-0.00001838,0.00000473,0.00100291,-0.00000341,0.00000137,0.00021232
 ,-0.00000084,0.00000061,-0.00069569,0.00000005,0.00000050,0.00050141,0
 .00000656,-0.00000194,-0.00018313,-0.00000297,0.00000527,-0.00688256,-
 0.00000472,0.00000353,0.00030313,0.00000280,0.00000323,-0.00017076,-0.
 00000121,-0.00000013,-0.00168759,0.00000052,0.00000005,0.00068277,-0.0
 0019071,-0.00096413,0.20915488,0.00076328,-0.00263267,-0.00000711,0.00
 015307,-0.00049708,-0.00000011,0.00035041,-0.00021269,-0.00000150,0.00
 342229,0.00030693,-0.00000248,0.00254096,-0.04228341,0.00005364,-0.008
 17822,0.00207443,0.00000697,-0.00130383,-0.00009545,0.00000059,-0.0000
 8880,-0.00008038,0.00000026,-0.00004977,0.00008530,0.00000003,-0.00564
 416,0.00566484,0.00001598,-0.00011971,-0.00074493,0.00000192,-0.007999
 90,-0.00128983,0.00000913,-0.00175857,-0.00114968,0.00000421,-0.000041
 97,-0.00028981,0.00000051,0.00007139,-0.00004338,-0.00000036,-0.137792
 70,-0.10721369,0.00016346,0.13032860,-0.00026228,-0.00335312,-0.000008
 86,0.00092531,-0.00042764,-0.00000030,-0.00168489,0.00015455,-0.000001
 34,0.00513114,-0.00405793,-0.00000429,-0.02401053,-0.04524479,0.000077
 48,-0.00398993,0.00773887,0.00000210,-0.00210825,0.00145086,0.00000173
 ,-0.00031072,0.00014776,0.00000115,-0.00039028,0.00007829,0.00000038,0
 .00220147,-0.00046061,-0.00000545,0.00033613,0.00124967,0.00000850,-0.
 00134485,0.00254111,0.00000376,0.00168553,0.00165088,0.00000054,-0.000
 17543,-0.00029107,0.00000044,0.00007665,0.00015939,0.00000007,-0.10956
 553,-0.66985777,0.00087134,0.09263981,0.80666543,-0.00000269,0.0000047
 0,-0.00303620,0.,0.00000010,0.00014809,0.00000062,0.00000248,-0.000521
 37,-0.00001186,0.00000187,-0.00079749,0.00002071,0.00008150,0.02134884
 ,0.00001780,-0.00000193,0.00257464,0.00000139,0.00000025,-0.00013629,0
 .00000044,-0.00000002,0.00011840,0.00000009,-0.00000043,-0.00003762,0.
 00001071,-0.00001861,0.00160440,-0.00000142,-0.00000284,0.00114737,0.0
 0001223,0.00000406,-0.00086388,0.00000453,0.00000296,0.00030142,0.0000
 0044,0.00000045,0.00042829,-0.00000029,-0.00000010,-0.00018112,0.00018
 439,0.00086966,-0.07706336,-0.00016610,-0.00112859,0.03151081,-0.00015
 166,-0.00069739,0.00000511,0.00015575,-0.00055678,-0.00000008,-0.00126
 176,0.00196835,0.00000267,-0.00181298,-0.00815242,-0.00000218,-0.04692
 606,0.01574579,-0.00002918,-0.00711766,0.00339178,-0.00000762,-0.00133
 434,-0.00005018,0.00000107,-0.00015205,-0.00013950,-0.00000013,-0.0007
 0730,-0.00022828,0.00000051,-0.00021731,0.00109957,0.00000352,-0.00509
 413,-0.00245384,-0.00000633,0.00065196,-0.00042952,-0.00000080,-0.0005
 0028,0.00000737,-0.00000141,0.00000829,-0.00017812,-0.00000095,0.00005
 454,-0.00009612,0.00000009,-0.19773440,0.06647633,-0.00009296,0.016241
 58,0.04649357,-0.00007762,0.57835517,-0.00008270,0.00267159,0.00000120
 ,-0.00039152,0.00005116,0.00000026,-0.00105180,0.00046772,0.00000163,-
 0.00156789,-0.00157761,-0.00000052,-0.00512279,0.01428052,0.00000020,-
 0.00311812,-0.00628557,-0.00000332,0.00051731,-0.00018889,-0.00000074,
 -0.00012732,0.00012750,-0.00000004,-0.00021766,-0.00011882,0.00000023,
 0.00028070,-0.00124683,-0.00000504,-0.00409267,0.00019581,-0.00000268,
 -0.00173763,0.00124044,0.00000613,0.00080396,0.00065368,0.00000010,-0.
 00008136,0.00003366,0.00000043,0.00000762,0.00012069,0.00000005,0.0316
 9025,-0.15488431,0.00013080,0.05987415,-0.09277053,0.00018448,0.109999
 80,0.43343843,-0.00000123,0.00000167,-0.00129143,-0.00000029,-0.000000
 51,-0.00002859,0.00000188,0.00000008,-0.00010620,0.00000476,-0.0000012
 0,0.00142306,0.00000270,-0.00000379,0.01109743,0.,0.00000307,0.0012740
 2,0.00000039,-0.00000089,0.00003015,0.00000006,-0.00000022,0.00008799,
 0.00000021,0.00000034,-0.00008001,-0.00000297,0.00000633,-0.00032404,-
 0.00000273,-0.00000295,0.00105427,0.00000247,-0.00000348,0.00027808,-0
 .00000253,-0.00000167,-0.00011676,0.00000006,0.00000004,0.00014135,0.,
 0.00000002,-0.00011687,-0.00003825,0.00012648,-0.06311067,-0.00008258,
 0.00017987,0.02923346,-0.00025882,-0.00066158,0.03413045,0.00016608,-0
 .00004629,-0.00000016,0.00003799,0.00019380,-0.00000004,-0.00029823,0.
 00033760,0.00000040,-0.00066852,-0.00115315,-0.00000251,-0.00167815,0.
 00567641,-0.00000298,0.00092684,0.00054520,0.00000193,0.00017717,-0.00
 000783,-0.00000010,0.00005596,-0.00000743,-0.00000009,-0.00008133,-0.0
 0008259,0.00000014,0.00023055,-0.00017343,-0.00000067,0.00009742,-0.00
 027720,0.00000017,-0.00034163,0.00025207,0.00000065,0.00014008,0.00010
 788,0.00000031,0.00001639,0.00002494,0.00000001,-0.00001311,-0.0000180
 0,0.,-0.05094928,-0.01868327,0.00003853,0.00910606,-0.00564692,0.00000
 662,-0.33245736,-0.18558233,0.00037688,0.37553307,-0.00017384,0.000307
 14,-0.00000061,-0.00012959,-0.00011656,0.00000029,0.00022491,-0.000206
 13,-0.00000075,0.00068061,0.00075035,0.00000052,0.00369371,-0.00315077
 ,0.00000958,-0.00022374,-0.00093143,-0.00000180,-0.00002866,0.00000056
 ,0.00000001,-0.00003555,0.00002345,0.00000007,0.00007460,0.00004772,-0
 .00000012,-0.00002839,0.00015161,0.00000009,-0.00027171,0.00065225,0.0
 0000191,0.00007319,-0.00008516,-0.00000056,-0.00006831,-0.00005562,0.0
 0000032,-0.00000594,-0.00001929,0.00000005,0.00000757,0.00000881,-0.00
 000001,0.02798343,0.02387495,-0.00003521,-0.00411245,-0.00537335,0.000
 00002,-0.23220039,-0.19620862,0.00035841,0.20454056,0.18033008,-0.0000
 0124,0.00000047,0.00018455,-0.00000030,-0.00000024,0.00003576,-0.00000
 045,0.00000120,-0.00008564,-0.00000255,-0.00000224,0.00079899,-0.00000
 225,0.00001568,0.00342216,0.00000159,-0.00000392,-0.00023649,0.0000004
 2,0.00000029,-0.00003404,-0.00000003,0.00000001,-0.00000830,-0.0000003
 1,-0.00000016,-0.00005285,0.00000063,-0.00000087,-0.00004972,-0.000000
 20,0.00000177,-0.00044229,-0.00000011,0.00000011,0.00003563,0.00000004
 ,0.00000015,-0.00001062,0.00000004,0.,0.00001754,0.,-0.00000004,0.0000
 2332,-0.00004485,-0.00002985,0.00419508,0.00000353,0.00000146,-0.00577
 839,0.00046511,0.00034842,-0.01357570,-0.00041907,-0.00033221,0.011561
 01\\-0.00000118,-0.00000705,-0.00000124,-0.00000186,-0.00000307,0.0000
 0213,-0.00000157,-0.00000085,0.00000127,0.00000291,0.00000360,0.000001
 28,-0.00000443,-0.00000009,-0.00000797,0.00000432,0.00000443,0.0000003
 5,0.00000261,-0.00000176,-0.00000079,0.00000069,-0.00000124,0.00000009
 ,-0.00000098,-0.00000173,-0.00000031,-0.00000104,0.00000238,-0.0000008
 1,0.00000015,-0.00000033,0.00000110,-0.00000107,0.00000008,0.00000098,
 -0.00000189,-0.00000139,-0.00000113,0.00000200,-0.00000077,0.00000006,
 0.00000212,0.00000076,0.00000040,0.00000469,-0.00001413,0.00001102,-0.
 00000612,0.00002611,-0.00000314,0.00000211,-0.00000801,-0.00000452,-0.
 00000149,0.00000307,0.00000121\\\@


 BETTER TO HUNT IN FIELDS, FOR HEALTH UNBOUGHT
 THAN FEE THE DOCTOR FOR A NAUSEOUS DRAUGHT.
 THE WISE, FOR CURE, ON EXERCISE DEPEND;
 GOD NEVER MADE HIS WORK FOR MAN TO MEND.
     -- JOHN DRYDEN (1631-1700)
 Job cpu time:       0 days  0 hours 38 minutes  1.0 seconds.
 Elapsed time:       0 days  0 hours 38 minutes  4.6 seconds.
 File lengths (MBytes):  RWF=    244 Int=      0 D2E=      0 Chk=     13 Scr=      1
 Normal termination of Gaussian 16 at Mon Jan 20 17:20:15 2025.
