 Entering Gaussian System, Link 0=g16
 Initial command:
 /sw/cluster/pub/apps//g16/l1.exe "/data/mmaximo/28044/Gau-2499120.inp" -scrdir="/data/mmaximo/28044/"
 Entering Link 1 = /sw/cluster/pub/apps//g16/l1.exe PID=   2499121.
  
 Copyright (c) 1988,1990,1992,1993,1995,1998,2003,2009,2016,
            Gaussian, Inc.  All Rights Reserved.
  
 This is part of the Gaussian(R) 16 program.  It is based on
 the Gaussian(R) 09 system (copyright 2009, Gaussian, Inc.),
 the Gaussian(R) 03 system (copyright 2003, Gaussian, Inc.),
 the Gaussian(R) 98 system (copyright 1998, Gaussian, Inc.),
 the Gaussian(R) 94 system (copyright 1995, Gaussian, Inc.),
 the Gaussian 92(TM) system (copyright 1992, Gaussian, Inc.),
 the Gaussian 90(TM) system (copyright 1990, Gaussian, Inc.),
 the Gaussian 88(TM) system (copyright 1988, Gaussian, Inc.),
 the Gaussian 86(TM) system (copyright 1986, Carnegie Mellon
 University), and the Gaussian 82(TM) system (copyright 1983,
 Carnegie Mellon University). Gaussian is a federally registered
 trademark of Gaussian, Inc.
  
 This software contains proprietary and confidential information,
 including trade secrets, belonging to Gaussian, Inc.
  
 This software is provided under written license and may be
 used, copied, transmitted, or stored only in accord with that
 written license.
  
 The following legend is applicable only to US Government
 contracts under FAR:
  
                    RESTRICTED RIGHTS LEGEND
  
 Use, reproduction and disclosure by the US Government is
 subject to restrictions as set forth in subparagraphs (a)
 and (c) of the Commercial Computer Software - Restricted
 Rights clause in FAR 52.227-19.
  
 Gaussian, Inc.
 340 Quinnipiac St., Bldg. 40, Wallingford CT 06492
  
  
 ---------------------------------------------------------------
 Warning -- This program may not be used in any manner that
 competes with the business of Gaussian, Inc. or will provide
 assistance to any competitor of Gaussian, Inc.  The licensee
 of this program is prohibited from giving any competitor of
 Gaussian, Inc. access to this program.  By using this program,
 the user acknowledges that Gaussian, Inc. is engaged in the
 business of creating and licensing software in the field of
 computational chemistry and represents and warrants to the
 licensee that it is not a competitor of Gaussian, Inc. and that
 it will not use this program in any manner prohibited above.
 ---------------------------------------------------------------
  

 Cite this work as:
 Gaussian 16, Revision A.03,
 M. J. Frisch, G. W. Trucks, H. B. Schlegel, G. E. Scuseria, 
 M. A. Robb, J. R. Cheeseman, G. Scalmani, V. Barone, 
 G. A. Petersson, H. Nakatsuji, X. Li, M. Caricato, A. V. Marenich, 
 J. Bloino, B. G. Janesko, R. Gomperts, B. Mennucci, H. P. Hratchian, 
 J. V. Ortiz, A. F. Izmaylov, J. L. Sonnenberg, D. Williams-Young, 
 F. Ding, F. Lipparini, F. Egidi, J. Goings, B. Peng, A. Petrone, 
 T. Henderson, D. Ranasinghe, V. G. Zakrzewski, J. Gao, N. Rega, 
 G. Zheng, W. Liang, M. Hada, M. Ehara, K. Toyota, R. Fukuda, 
 J. Hasegawa, M. Ishida, T. Nakajima, Y. Honda, O. Kitao, H. Nakai, 
 T. Vreven, K. Throssell, J. A. Montgomery, Jr., J. E. Peralta, 
 F. Ogliaro, M. J. Bearpark, J. J. Heyd, E. N. Brothers, K. N. Kudin, 
 V. N. Staroverov, T. A. Keith, R. Kobayashi, J. Normand, 
 K. Raghavachari, A. P. Rendell, J. C. Burant, S. S. Iyengar, 
 J. Tomasi, M. Cossi, J. M. Millam, M. Klene, C. Adamo, R. Cammi, 
 J. W. Ochterski, R. L. Martin, K. Morokuma, O. Farkas, 
 J. B. Foresman, and D. J. Fox, Gaussian, Inc., Wallingford CT, 2016.
 
 ******************************************
 Gaussian 16:  ES64L-G16RevA.03 25-Dec-2016
                20-Jan-2025 
 ******************************************
 %chk=C6H5CH2+.chk
 -------------------------
 # opt freq b3lyp def2tzvp
 -------------------------
 1/18=20,19=15,26=3,38=1/1,3;
 2/9=110,12=2,17=6,18=5,40=1/2;
 3/5=44,7=101,11=2,25=1,30=1,71=1,74=-5/1,2,3;
 4//1;
 5/5=2,38=5/2;
 6/7=2,8=2,9=2,10=2,28=1/1;
 7//1,2,3,16;
 1/18=20,19=15,26=3/3(2);
 2/9=110/2;
 99//99;
 2/9=110/2;
 3/5=44,7=101,11=2,25=1,30=1,71=1,74=-5/1,2,3;
 4/5=5,16=3,69=1/1;
 5/5=2,38=5/2;
 7//1,2,3,16;
 1/18=20,19=15,26=3/3(-5);
 2/9=110/2;
 6/7=2,8=2,9=2,10=2,19=2,28=1/1;
 99/9=1/99;
 --------
 opt meta
 --------
 Symbolic Z-matrix:
 Charge =  1 Multiplicity = 1
 C                     0.0555   -1.80006   0.01003 
 C                     1.24886  -1.06644  -0.03026 
 C                     1.21171   0.28825  -0.0325 
 C                    -0.02006   0.9555    0.00549 
 C                    -1.21341   0.22188   0.04578 
 C                    -1.17627  -1.13281   0.04802 
 H                     0.08483  -2.86966   0.0118 
 H                     2.18934  -1.5759   -0.05926 
 H                     2.12287   0.84838  -0.06326 
 H                    -2.1539    0.73134   0.07479 
 C                    -0.05721   2.31019   0.00325 
 H                     0.85395   2.87032  -0.02751 
 H                    -0.99769   2.81965   0.03226 
 C                    -2.48765  -1.93899   0.0923 
 O                    -3.59372  -1.33983   0.12641 
 O                    -2.44845  -3.36845   0.09466 
 H                    -3.23738  -3.71091  -0.33185 
 

 GradGradGradGradGradGradGradGradGradGradGradGradGradGradGradGradGradGrad
 Berny optimization.
 Initialization pass.
                           ----------------------------
                           !    Initial Parameters    !
                           ! (Angstroms and Degrees)  !
 --------------------------                            --------------------------
 ! Name  Definition              Value          Derivative Info.                !
 --------------------------------------------------------------------------------
 ! R1    R(1,2)                  1.4014         estimate D2E/DX2                !
 ! R2    R(1,6)                  1.4014         estimate D2E/DX2                !
 ! R3    R(1,7)                  1.07           estimate D2E/DX2                !
 ! R4    R(2,3)                  1.3552         estimate D2E/DX2                !
 ! R5    R(2,8)                  1.07           estimate D2E/DX2                !
 ! R6    R(3,4)                  1.4014         estimate D2E/DX2                !
 ! R7    R(3,9)                  1.07           estimate D2E/DX2                !
 ! R8    R(4,5)                  1.4014         estimate D2E/DX2                !
 ! R9    R(4,11)                 1.3552         estimate D2E/DX2                !
 ! R10   R(5,6)                  1.3552         estimate D2E/DX2                !
 ! R11   R(5,10)                 1.07           estimate D2E/DX2                !
 ! R12   R(6,14)                 1.54           estimate D2E/DX2                !
 ! R13   R(11,12)                1.07           estimate D2E/DX2                !
 ! R14   R(11,13)                1.07           estimate D2E/DX2                !
 ! R15   R(14,15)                1.2584         estimate D2E/DX2                !
 ! R16   R(14,16)                1.43           estimate D2E/DX2                !
 ! R17   R(16,17)                0.96           estimate D2E/DX2                !
 ! A1    A(2,1,6)              120.0            estimate D2E/DX2                !
 ! A2    A(2,1,7)              120.0            estimate D2E/DX2                !
 ! A3    A(6,1,7)              120.0            estimate D2E/DX2                !
 ! A4    A(1,2,3)              120.0            estimate D2E/DX2                !
 ! A5    A(1,2,8)              120.0            estimate D2E/DX2                !
 ! A6    A(3,2,8)              120.0            estimate D2E/DX2                !
 ! A7    A(2,3,4)              120.0            estimate D2E/DX2                !
 ! A8    A(2,3,9)              120.0            estimate D2E/DX2                !
 ! A9    A(4,3,9)              120.0            estimate D2E/DX2                !
 ! A10   A(3,4,5)              120.0            estimate D2E/DX2                !
 ! A11   A(3,4,11)             120.0            estimate D2E/DX2                !
 ! A12   A(5,4,11)             120.0            estimate D2E/DX2                !
 ! A13   A(4,5,6)              120.0            estimate D2E/DX2                !
 ! A14   A(4,5,10)             120.0            estimate D2E/DX2                !
 ! A15   A(6,5,10)             120.0            estimate D2E/DX2                !
 ! A16   A(1,6,5)              120.0            estimate D2E/DX2                !
 ! A17   A(1,6,14)             120.0            estimate D2E/DX2                !
 ! A18   A(5,6,14)             120.0            estimate D2E/DX2                !
 ! A19   A(4,11,12)            120.0            estimate D2E/DX2                !
 ! A20   A(4,11,13)            120.0            estimate D2E/DX2                !
 ! A21   A(12,11,13)           120.0            estimate D2E/DX2                !
 ! A22   A(6,14,15)            120.0            estimate D2E/DX2                !
 ! A23   A(6,14,16)            120.0            estimate D2E/DX2                !
 ! A24   A(15,14,16)           120.0            estimate D2E/DX2                !
 ! A25   A(14,16,17)           109.4712         estimate D2E/DX2                !
 ! D1    D(6,1,2,3)             -0.0001         estimate D2E/DX2                !
 ! D2    D(6,1,2,8)            179.9999         estimate D2E/DX2                !
 ! D3    D(7,1,2,3)           -179.9999         estimate D2E/DX2                !
 ! D4    D(7,1,2,8)              0.0            estimate D2E/DX2                !
 ! D5    D(2,1,6,5)              0.0001         estimate D2E/DX2                !
 ! D6    D(2,1,6,14)          -180.0            estimate D2E/DX2                !
 ! D7    D(7,1,6,5)            179.9999         estimate D2E/DX2                !
 ! D8    D(7,1,6,14)            -0.0001         estimate D2E/DX2                !
 ! D9    D(1,2,3,4)              0.0001         estimate D2E/DX2                !
 ! D10   D(1,2,3,9)            179.9999         estimate D2E/DX2                !
 ! D11   D(8,2,3,4)           -179.9999         estimate D2E/DX2                !
 ! D12   D(8,2,3,9)             -0.0001         estimate D2E/DX2                !
 ! D13   D(2,3,4,5)             -0.0001         estimate D2E/DX2                !
 ! D14   D(2,3,4,11)          -180.0            estimate D2E/DX2                !
 ! D15   D(9,3,4,5)           -179.9999         estimate D2E/DX2                !
 ! D16   D(9,3,4,11)             0.0002         estimate D2E/DX2                !
 ! D17   D(3,4,5,6)              0.0001         estimate D2E/DX2                !
 ! D18   D(3,4,5,10)           179.9999         estimate D2E/DX2                !
 ! D19   D(11,4,5,6)           180.0            estimate D2E/DX2                !
 ! D20   D(11,4,5,10)           -0.0001         estimate D2E/DX2                !
 ! D21   D(3,4,11,12)           -0.0002         estimate D2E/DX2                !
 ! D22   D(3,4,11,13)         -179.9999         estimate D2E/DX2                !
 ! D23   D(5,4,11,12)          179.9999         estimate D2E/DX2                !
 ! D24   D(5,4,11,13)            0.0002         estimate D2E/DX2                !
 ! D25   D(4,5,6,1)             -0.0001         estimate D2E/DX2                !
 ! D26   D(4,5,6,14)           180.0            estimate D2E/DX2                !
 ! D27   D(10,5,6,1)          -179.9999         estimate D2E/DX2                !
 ! D28   D(10,5,6,14)            0.0001         estimate D2E/DX2                !
 ! D29   D(1,6,14,15)         -180.0            estimate D2E/DX2                !
 ! D30   D(1,6,14,16)            0.0            estimate D2E/DX2                !
 ! D31   D(5,6,14,15)            0.0            estimate D2E/DX2                !
 ! D32   D(5,6,14,16)         -180.0            estimate D2E/DX2                !
 ! D33   D(6,14,16,17)        -150.0            estimate D2E/DX2                !
 ! D34   D(15,14,16,17)         30.0            estimate D2E/DX2                !
 --------------------------------------------------------------------------------
 Trust Radius=3.00D-01 FncErr=1.00D-07 GrdErr=1.00D-06 EigMax=2.50D+02 EigMin=1.00D-04
 Number of steps in this run=     86 maximum allowed number of steps=    102.
 GradGradGradGradGradGradGradGradGradGradGradGradGradGradGradGradGradGrad

                          Input orientation:                          
 ---------------------------------------------------------------------
 Center     Atomic      Atomic             Coordinates (Angstroms)
 Number     Number       Type             X           Y           Z
 ---------------------------------------------------------------------
      1          6           0        0.055504   -1.800062    0.010032
      2          6           0        1.248860   -1.066441   -0.030263
      3          6           0        1.211712    0.288248   -0.032497
      4          6           0       -0.020058    0.955498    0.005489
      5          6           0       -1.213414    0.221876    0.045784
      6          6           0       -1.176266   -1.132813    0.048018
      7          1           0        0.084834   -2.869659    0.011798
      8          1           0        2.189343   -1.575901   -0.059264
      9          1           0        2.122865    0.848385   -0.063261
     10          1           0       -2.153897    0.731336    0.074788
     11          6           0       -0.057206    2.310187    0.003254
     12          1           0        0.853947    2.870323   -0.027511
     13          1           0       -0.997690    2.819647    0.032258
     14          6           0       -2.487645   -1.938990    0.092300
     15          8           0       -3.593724   -1.339827    0.126409
     16          8           0       -2.448447   -3.368451    0.094658
     17          1           0       -3.237380   -3.710909   -0.331848
 ---------------------------------------------------------------------
                    Distance matrix (angstroms):
                    1          2          3          4          5
     1  C    0.000000
     2  C    1.401400   0.000000
     3  C    2.387397   1.355200   0.000000
     4  C    2.756600   2.387397   1.401400   0.000000
     5  C    2.387397   2.779988   2.427296   1.401400   0.000000
     6  C    1.401400   2.427296   2.779988   2.387397   1.355200
     7  H    1.070000   2.146700   3.353236   3.826600   3.353236
     8  H    2.146700   1.070000   2.105120   3.360599   3.849908
     9  H    3.360599   2.105120   1.070000   2.146700   3.396345
    10  H    3.360599   3.849908   3.396345   2.146700   1.070000
    11  C    4.111800   3.620572   2.387397   1.355200   2.387397
    12  H    4.738293   3.956523   2.606747   2.105120   3.360599
    13  H    4.738293   4.489161   3.360599   2.105120   2.606747
    14  C    2.548270   3.838989   4.319885   3.804548   2.509019
    15  O    3.679977   4.852825   5.076229   4.249027   2.848034
    16  O    2.955804   4.357170   5.175363   4.959996   3.797124
    17  H    3.822474   5.216370   5.989765   5.678056   4.439127
                    6          7          8          9         10
     6  C    0.000000
     7  H    2.146700   0.000000
     8  H    3.396345   2.471400   0.000000
     9  H    3.849908   4.240643   2.425200   0.000000
    10  H    2.105120   4.240643   4.919863   4.280590   0.000000
    11  C    3.620572   5.181800   4.489161   2.625643   2.625643
    12  H    4.489161   5.791414   4.642542   2.387397   3.692270
    13  H    3.956523   5.791414   5.430137   3.692270   2.387397
    14  C    1.540000   2.736837   4.693509   5.389849   2.691159
    15  O    2.427572   3.985638   5.790861   6.124022   2.522991
    16  O    2.572683   2.583249   4.974538   6.221217   4.110403
    17  H    3.322510   3.444257   5.837970   7.042125   4.590516
                   11         12         13         14         15
    11  C    0.000000
    12  H    1.070000   0.000000
    13  H    1.070000   1.853294   0.000000
    14  C    4.895965   5.857482   4.986803   0.000000
    15  O    5.083772   6.126242   4.904028   1.258400   0.000000
    16  O    6.162249   7.059961   6.356190   1.430000   2.329803
    17  H    6.817580   7.755270   6.913534   1.970203   2.441108
                   16         17
    16  O    0.000000
    17  H    0.960000   0.000000
 Stoichiometry    C8H7O2(1+)
 Framework group  C1[X(C8H7O2)]
 Deg. of freedom    45
 Full point group                 C1      NOp   1
 Largest Abelian subgroup         C1      NOp   1
 Largest concise Abelian subgroup C1      NOp   1
                         Standard orientation:                         
 ---------------------------------------------------------------------
 Center     Atomic      Atomic             Coordinates (Angstroms)
 Number     Number       Type             X           Y           Z
 ---------------------------------------------------------------------
      1          6           0       -0.128700    1.434061   -0.009283
      2          6           0        1.222976    1.803982   -0.001966
      3          6           0        2.186318    0.850835    0.005083
      4          6           0        1.830826   -0.504726    0.005053
      5          6           0        0.479150   -0.874647   -0.002264
      6          6           0       -0.484192    0.078500   -0.009313
      7          1           0       -0.889308    2.186620   -0.014850
      8          1           0        1.494402    2.838984   -0.001946
      9          1           0        3.218352    1.133278    0.010668
     10          1           0        0.207724   -1.909649   -0.002288
     11          6           0        2.794168   -1.457873    0.012103
     12          1           0        3.826203   -1.175430    0.017688
     13          1           0        2.522742   -2.492875    0.012079
     14          6           0       -1.969550   -0.328007   -0.017355
     15          8           0       -2.288767   -1.545246   -0.017381
     16          8           0       -2.986063    0.677749   -0.024794
     17          1           0       -3.767460    0.346292    0.423709
 ---------------------------------------------------------------------
 Rotational constants (GHZ):           2.7642360           0.9411997           0.7025192
 Standard basis: def2TZVP (5D, 7F)
 There are   402 symmetry adapted cartesian basis functions of A   symmetry.
 There are   352 symmetry adapted basis functions of A   symmetry.
   352 basis functions,   566 primitive gaussians,   402 cartesian basis functions
    35 alpha electrons       35 beta electrons
       nuclear repulsion energy       474.0112531907 Hartrees.
 NAtoms=   17 NActive=   17 NUniq=   17 SFac= 1.00D+00 NAtFMM=   60 NAOKFM=F Big=F
 Integral buffers will be    131072 words long.
 Raffenetti 2 integral format.
 Two-electron integral symmetry is turned on.
 One-electron integrals computed using PRISM.
   1 Symmetry operations used in ECPInt.
 ECPInt:  NShTT=    9591 NPrTT=   29644 LenC2=    9182 LenP2D=   22122.
 LDataN:  DoStor=T MaxTD1= 6 Len=  172
 NBasis=   352 RedAO= T EigKep=  7.48D-06  NBF=   352
 NBsUse=   352 1.00D-06 EigRej= -1.00D+00 NBFU=   352
 ExpMin= 9.52D-02 ExpMax= 2.70D+04 ExpMxC= 9.22D+02 IAcc=3 IRadAn=         5 AccDes= 0.00D+00
 Harris functional with IExCor=  402 and IRadAn=       5 diagonalized for initial guess.
 HarFok:  IExCor=  402 AccDes= 0.00D+00 IRadAn=         5 IDoV= 1 UseB2=F ITyADJ=14
 ICtDFT=  3500011 ScaDFX=  1.000000  1.000000  1.000000  1.000000
 FoFCou: FMM=F IPFlag=           0 FMFlag=      100000 FMFlg1=           0
         NFxFlg=           0 DoJE=T BraDBF=F KetDBF=T FulRan=T
         wScrn=  0.000000 ICntrl=       500 IOpCl=  0 I1Cent=   200000004 NGrid=           0
         NMat0=    1 NMatS0=      1 NMatT0=    0 NMatD0=    1 NMtDS0=    0 NMtDT0=    0
 Petite list used in FoFCou.
 Requested convergence on RMS density matrix=1.00D-08 within 128 cycles.
 Requested convergence on MAX density matrix=1.00D-06.
 Requested convergence on             energy=1.00D-06.
 No special actions if energy rises.
 Integral accuracy reduced to 1.0D-05 until final iterations.
 EnCoef did     2 forward-backward iterations
 EnCoef did     3 forward-backward iterations
 Initial convergence to 1.0D-05 achieved.  Increase integral accuracy.
 SCF Done:  E(RB3LYP) =  -459.381622096     A.U. after   20 cycles
            NFock= 20  Conv=0.66D-08     -V/T= 2.0048

 **********************************************************************

            Population analysis using the SCF density.

 **********************************************************************

 Orbital symmetries:
       Occupied  (A) (A) (A) (A) (A) (A) (A) (A) (A) (A) (A) (A)
                 (A) (A) (A) (A) (A) (A) (A) (A) (A) (A) (A) (A)
                 (A) (A) (A) (A) (A) (A) (A) (A) (A) (A) (A)
       Virtual   (A) (A) (A) (A) (A) (A) (A) (A) (A) (A) (A) (A)
                 (A) (A) (A) (A) (A) (A) (A) (A) (A) (A) (A) (A)
                 (A) (A) (A) (A) (A) (A) (A) (A) (A) (A) (A) (A)
                 (A) (A) (A) (A) (A) (A) (A) (A) (A) (A) (A) (A)
                 (A) (A) (A) (A) (A) (A) (A) (A) (A) (A) (A) (A)
                 (A) (A) (A) (A) (A) (A) (A) (A) (A) (A) (A) (A)
                 (A) (A) (A) (A) (A) (A) (A) (A) (A) (A) (A) (A)
                 (A) (A) (A) (A) (A) (A) (A) (A) (A) (A) (A) (A)
                 (A) (A) (A) (A) (A) (A) (A) (A) (A) (A) (A) (A)
                 (A) (A) (A) (A) (A) (A) (A) (A) (A) (A) (A) (A)
                 (A) (A) (A) (A) (A) (A) (A) (A) (A) (A) (A) (A)
                 (A) (A) (A) (A) (A) (A) (A) (A) (A) (A) (A) (A)
                 (A) (A) (A) (A) (A) (A) (A) (A) (A) (A) (A) (A)
                 (A) (A) (A) (A) (A) (A) (A) (A) (A) (A) (A) (A)
                 (A) (A) (A) (A) (A) (A) (A) (A) (A) (A) (A) (A)
                 (A) (A) (A) (A) (A) (A) (A) (A) (A) (A) (A) (A)
                 (A) (A) (A) (A) (A) (A) (A) (A) (A) (A) (A) (A)
                 (A) (A) (A) (A) (A) (A) (A) (A) (A) (A) (A) (A)
                 (A) (A) (A) (A) (A) (A) (A) (A) (A) (A) (A) (A)
                 (A) (A) (A) (A) (A) (A) (A) (A) (A) (A) (A) (A)
                 (A) (A) (A) (A) (A) (A) (A) (A) (A) (A) (A) (A)
                 (A) (A) (A) (A) (A) (A) (A) (A) (A) (A) (A) (A)
                 (A) (A) (A) (A) (A) (A) (A) (A) (A) (A) (A) (A)
                 (A) (A) (A) (A) (A) (A) (A) (A) (A) (A) (A) (A)
                 (A) (A) (A) (A) (A) (A) (A) (A) (A) (A) (A) (A)
                 (A) (A) (A) (A) (A) (A) (A) (A) (A) (A) (A) (A)
                 (A) (A) (A) (A) (A)
 The electronic state is 1-A.
 Alpha  occ. eigenvalues --  -19.31540 -19.27614 -10.48071 -10.43829 -10.41176
 Alpha  occ. eigenvalues --  -10.40477 -10.40357 -10.40077 -10.39990 -10.37969
 Alpha  occ. eigenvalues --   -1.22486  -1.14975  -1.09693  -1.01427  -0.97922
 Alpha  occ. eigenvalues --   -0.90447  -0.84851  -0.80909  -0.77129  -0.72637
 Alpha  occ. eigenvalues --   -0.70134  -0.68124  -0.65581  -0.63742  -0.62816
 Alpha  occ. eigenvalues --   -0.62002  -0.61040  -0.57933  -0.57791  -0.56448
 Alpha  occ. eigenvalues --   -0.53414  -0.50482  -0.48072  -0.46289  -0.43407
 Alpha virt. eigenvalues --   -0.34048  -0.24130  -0.19616  -0.13943  -0.11246
 Alpha virt. eigenvalues --   -0.09676  -0.08978  -0.06985  -0.05432  -0.05141
 Alpha virt. eigenvalues --   -0.05048  -0.03360  -0.02032  -0.00649   0.00720
 Alpha virt. eigenvalues --    0.01290   0.02508   0.02958   0.04739   0.05688
 Alpha virt. eigenvalues --    0.05818   0.06558   0.06946   0.09069   0.10106
 Alpha virt. eigenvalues --    0.11612   0.11902   0.12699   0.13225   0.14107
 Alpha virt. eigenvalues --    0.14545   0.15121   0.17671   0.18937   0.20490
 Alpha virt. eigenvalues --    0.21878   0.22122   0.22521   0.25063   0.25541
 Alpha virt. eigenvalues --    0.26000   0.26575   0.27849   0.29285   0.30693
 Alpha virt. eigenvalues --    0.31276   0.31726   0.32340   0.33397   0.33722
 Alpha virt. eigenvalues --    0.34127   0.36504   0.36794   0.37817   0.39484
 Alpha virt. eigenvalues --    0.41445   0.42969   0.46012   0.47664   0.47974
 Alpha virt. eigenvalues --    0.48636   0.49313   0.50059   0.51929   0.52834
 Alpha virt. eigenvalues --    0.53482   0.53913   0.56025   0.57486   0.59253
 Alpha virt. eigenvalues --    0.60581   0.62361   0.63675   0.65867   0.66825
 Alpha virt. eigenvalues --    0.67217   0.70287   0.70982   0.73354   0.74728
 Alpha virt. eigenvalues --    0.76098   0.76927   0.77925   0.78263   0.82412
 Alpha virt. eigenvalues --    0.83606   0.86747   0.89038   0.91779   0.93552
 Alpha virt. eigenvalues --    0.96419   0.97131   0.98115   1.00594   1.04348
 Alpha virt. eigenvalues --    1.04615   1.06400   1.06771   1.07743   1.08850
 Alpha virt. eigenvalues --    1.10957   1.14357   1.16798   1.18202   1.19304
 Alpha virt. eigenvalues --    1.21423   1.25093   1.25923   1.27581   1.28019
 Alpha virt. eigenvalues --    1.30242   1.30272   1.35265   1.36249   1.37315
 Alpha virt. eigenvalues --    1.39309   1.40165   1.41741   1.42418   1.44592
 Alpha virt. eigenvalues --    1.45098   1.46314   1.47451   1.48203   1.49359
 Alpha virt. eigenvalues --    1.52473   1.53724   1.54508   1.60309   1.63571
 Alpha virt. eigenvalues --    1.66620   1.67022   1.69566   1.71320   1.72964
 Alpha virt. eigenvalues --    1.76162   1.79431   1.79642   1.80054   1.81599
 Alpha virt. eigenvalues --    1.82685   1.84150   1.85922   1.87257   1.87778
 Alpha virt. eigenvalues --    1.90805   1.92496   1.95789   1.98748   2.02615
 Alpha virt. eigenvalues --    2.04361   2.06159   2.08154   2.10177   2.11700
 Alpha virt. eigenvalues --    2.14088   2.17656   2.20557   2.22260   2.24752
 Alpha virt. eigenvalues --    2.25470   2.26880   2.28614   2.34685   2.37685
 Alpha virt. eigenvalues --    2.38447   2.40455   2.41340   2.42352   2.43121
 Alpha virt. eigenvalues --    2.45536   2.47679   2.49070   2.50346   2.51694
 Alpha virt. eigenvalues --    2.52681   2.53217   2.54408   2.55400   2.58614
 Alpha virt. eigenvalues --    2.59003   2.60321   2.62174   2.64049   2.65394
 Alpha virt. eigenvalues --    2.67105   2.67428   2.69970   2.72601   2.73272
 Alpha virt. eigenvalues --    2.74734   2.76528   2.77539   2.78567   2.79830
 Alpha virt. eigenvalues --    2.82292   2.83496   2.86156   2.87487   2.91653
 Alpha virt. eigenvalues --    2.91902   2.92902   2.93372   2.95272   2.96076
 Alpha virt. eigenvalues --    2.97973   2.98395   2.99257   3.00466   3.02200
 Alpha virt. eigenvalues --    3.02638   3.02982   3.05248   3.06238   3.07040
 Alpha virt. eigenvalues --    3.10066   3.10987   3.12079   3.14093   3.15623
 Alpha virt. eigenvalues --    3.16886   3.18160   3.19847   3.20636   3.21531
 Alpha virt. eigenvalues --    3.26665   3.27363   3.28176   3.28387   3.30892
 Alpha virt. eigenvalues --    3.35638   3.38024   3.40703   3.41472   3.45334
 Alpha virt. eigenvalues --    3.46044   3.47447   3.51335   3.54408   3.57019
 Alpha virt. eigenvalues --    3.61357   3.65140   3.67558   3.68985   3.70577
 Alpha virt. eigenvalues --    3.73397   3.77811   3.80809   3.86095   3.88615
 Alpha virt. eigenvalues --    3.89940   3.93088   3.95319   3.98116   4.01515
 Alpha virt. eigenvalues --    4.01697   4.02778   4.03541   4.07383   4.12414
 Alpha virt. eigenvalues --    4.18706   4.22563   4.26053   4.27446   4.28215
 Alpha virt. eigenvalues --    4.40550   4.44824   4.47619   4.48574   4.49973
 Alpha virt. eigenvalues --    4.54545   4.61869   4.63739   4.74267   4.76053
 Alpha virt. eigenvalues --    4.84932   4.95661   4.99949   5.03918   5.06774
 Alpha virt. eigenvalues --    5.07698   5.10539   5.13983   5.20319   5.23257
 Alpha virt. eigenvalues --    5.24652   5.26287   5.31677   5.37629   5.49834
 Alpha virt. eigenvalues --    5.50543   5.61964   5.71843   5.83962   6.06191
 Alpha virt. eigenvalues --    6.10101   6.17604   6.28020   6.33478   6.43758
 Alpha virt. eigenvalues --    6.49459   6.60554   6.67509   6.79388   6.85001
 Alpha virt. eigenvalues --    6.94389   7.06737  21.80783  22.28124  22.40776
 Alpha virt. eigenvalues --   22.56626  22.64887  22.72673  22.87166  23.15941
 Alpha virt. eigenvalues --   43.58015  43.68216
          Condensed to atoms (all electrons):
               1          2          3          4          5          6
     1  C    4.952911   0.406693   0.017546  -0.040058  -0.091901   0.402579
     2  C    0.406693   4.875630   0.491873  -0.035838  -0.014834  -0.030457
     3  C    0.017546   0.491873   4.979491   0.383079  -0.066197  -0.036211
     4  C   -0.040058  -0.035838   0.383079   4.915891   0.299993  -0.049350
     5  C   -0.091901  -0.014834  -0.066197   0.299993   5.309577   0.403267
     6  C    0.402579  -0.030457  -0.036211  -0.049350   0.403267   5.384633
     7  H    0.411833  -0.036810   0.005403  -0.000976   0.007029  -0.024023
     8  H   -0.034825   0.422240  -0.034098   0.007750  -0.000354   0.005588
     9  H    0.004652  -0.017776   0.415149  -0.045183   0.007215  -0.001026
    10  H    0.006904  -0.001968   0.007142  -0.049126   0.406865  -0.012159
    11  C   -0.002691   0.008293  -0.062135   0.451738  -0.041811   0.007048
    12  H    0.000041   0.000966  -0.004748  -0.044951   0.010350  -0.001155
    13  H    0.000293  -0.000759   0.007551  -0.042260  -0.006017   0.002109
    14  C   -0.000944  -0.005364   0.004606   0.012026  -0.091210   0.183140
    15  O    0.005903  -0.000636   0.000471   0.006555   0.035933  -0.162354
    16  O    0.028895   0.000237   0.000344   0.000129   0.005981  -0.139060
    17  H   -0.002748  -0.000028  -0.000002  -0.000003  -0.000641   0.017137
               7          8          9         10         11         12
     1  C    0.411833  -0.034825   0.004652   0.006904  -0.002691   0.000041
     2  C   -0.036810   0.422240  -0.017776  -0.001968   0.008293   0.000966
     3  C    0.005403  -0.034098   0.415149   0.007142  -0.062135  -0.004748
     4  C   -0.000976   0.007750  -0.045183  -0.049126   0.451738  -0.044951
     5  C    0.007029  -0.000354   0.007215   0.406865  -0.041811   0.010350
     6  C   -0.024023   0.005588  -0.001026  -0.012159   0.007048  -0.001155
     7  H    0.430292  -0.003345  -0.000092  -0.000126   0.000053   0.000000
     8  H   -0.003345   0.460401  -0.004533   0.000044  -0.000120  -0.000004
     9  H   -0.000092  -0.004533   0.464120  -0.000048  -0.003134   0.002825
    10  H   -0.000126   0.000044  -0.000048   0.435276  -0.001546   0.000047
    11  C    0.000053  -0.000120  -0.003134  -0.001546   4.885096   0.409676
    12  H    0.000000  -0.000004   0.002825   0.000047   0.409676   0.443330
    13  H   -0.000002   0.000002   0.000068   0.001933   0.410598  -0.013226
    14  C   -0.008431  -0.000397   0.000103  -0.010099  -0.002352  -0.000004
    15  O    0.000254   0.000003  -0.000000   0.021267  -0.000385  -0.000000
    16  O    0.010206  -0.000070   0.000000   0.000793  -0.000012  -0.000000
    17  H   -0.000531  -0.000001   0.000000  -0.000080   0.000000   0.000000
              13         14         15         16         17
     1  C    0.000293  -0.000944   0.005903   0.028895  -0.002748
     2  C   -0.000759  -0.005364  -0.000636   0.000237  -0.000028
     3  C    0.007551   0.004606   0.000471   0.000344  -0.000002
     4  C   -0.042260   0.012026   0.006555   0.000129  -0.000003
     5  C   -0.006017  -0.091210   0.035933   0.005981  -0.000641
     6  C    0.002109   0.183140  -0.162354  -0.139060   0.017137
     7  H   -0.000002  -0.008431   0.000254   0.010206  -0.000531
     8  H    0.000002  -0.000397   0.000003  -0.000070  -0.000001
     9  H    0.000068   0.000103  -0.000000   0.000000   0.000000
    10  H    0.001933  -0.010099   0.021267   0.000793  -0.000080
    11  C    0.410598  -0.002352  -0.000385  -0.000012   0.000000
    12  H   -0.013226  -0.000004  -0.000000  -0.000000   0.000000
    13  H    0.438150   0.000048   0.000021   0.000000  -0.000000
    14  C    0.000048   4.555518   0.632303   0.407147  -0.017969
    15  O    0.000021   0.632303   7.823363  -0.075275   0.003075
    16  O    0.000000   0.407147  -0.075275   7.852922   0.290126
    17  H   -0.000000  -0.017969   0.003075   0.290126   0.356063
 Mulliken charges:
               1
     1  C   -0.065084
     2  C   -0.061463
     3  C   -0.109264
     4  C    0.230583
     5  C   -0.173243
     6  C    0.050293
     7  H    0.209266
     8  H    0.181719
     9  H    0.177661
    10  H    0.194883
    11  C   -0.058317
    12  H    0.196854
    13  H    0.201489
    14  C    0.341882
    15  O   -0.290498
    16  O   -0.382364
    17  H    0.355603
 Sum of Mulliken charges =   1.00000
 Mulliken charges with hydrogens summed into heavy atoms:
               1
     1  C    0.144183
     2  C    0.120257
     3  C    0.068397
     4  C    0.230583
     5  C    0.021641
     6  C    0.050293
    11  C    0.340026
    14  C    0.341882
    15  O   -0.290498
    16  O   -0.026762
 Electronic spatial extent (au):  <R**2>=           1506.4187
 Charge=              1.0000 electrons
 Dipole moment (field-independent basis, Debye):
    X=              6.9707    Y=              1.0133    Z=              0.7641  Tot=              7.0853
 Quadrupole moment (field-independent basis, Debye-Ang):
   XX=            -21.6303   YY=            -42.4535   ZZ=            -55.9476
   XY=             -9.3441   XZ=             -3.1588   YZ=              0.1701
 Traceless Quadrupole moment (field-independent basis, Debye-Ang):
   XX=             18.3801   YY=             -2.4430   ZZ=            -15.9371
   XY=             -9.3441   XZ=             -3.1588   YZ=              0.1701
 Octapole moment (field-independent basis, Debye-Ang**2):
  XXX=             21.0126  YYY=              7.2197  ZZZ=              0.3947  XYY=             31.0532
  XXY=             -7.2115  XXZ=             13.7118  XZZ=             -8.9617  YZZ=             -2.1685
  YYZ=              0.0477  XYZ=             -1.1638
 Hexadecapole moment (field-independent basis, Debye-Ang**3):
 XXXX=           -825.6010 YYYY=           -425.2894 ZZZZ=            -56.9130 XXXY=            -83.4183
 XXXZ=            -52.7060 YYYX=            -33.9933 YYYZ=             -0.2278 ZZZX=             -2.0782
 ZZZY=              0.2303 XXYY=           -271.4169 XXZZ=           -230.1222 YYZZ=            -99.4993
 XXYZ=              4.2838 YYXZ=             -0.2991 ZZXY=             -1.7055
 N-N= 4.740112531907D+02 E-N=-2.007128659045D+03  KE= 4.571728687220D+02
   1 Symmetry operations used in ECPInt.
 ECPInt:  NShTT=    9591 NPrTT=   29644 LenC2=    9182 LenP2D=   22122.
 LDataN:  DoStor=T MaxTD1= 7 Len=  274
 Calling FoFJK, ICntrl=      2127 FMM=F ISym2X=0 I1Cent= 0 IOpClX= 0 NMat=1 NMatS=1 NMatT=0.
 ***** Axes restored to original set *****
 -------------------------------------------------------------------
 Center     Atomic                   Forces (Hartrees/Bohr)
 Number     Number              X              Y              Z
 -------------------------------------------------------------------
      1        6           0.004730048    0.011989540   -0.000201506
      2        6           0.000991004   -0.012532145   -0.000051736
      3        6           0.016458287   -0.006120360   -0.000481697
      4        6          -0.000006905    0.013698012   -0.000560768
      5        6          -0.018633979   -0.001872054    0.000893722
      6        6          -0.020378854   -0.047743265    0.004263819
      7        1          -0.001149692   -0.009259462    0.000020774
      8        1           0.006689475   -0.005192760   -0.000164750
      9        1           0.007232384    0.005847807   -0.000246518
     10        1          -0.009332097    0.003125416    0.000525091
     11        6          -0.001378435   -0.000336392    0.000031413
     12        1           0.006101280    0.008655366   -0.000130474
     13        1          -0.006638314    0.008464140    0.000171991
     14        6          -0.084706705    0.004428387    0.001055728
     15        8           0.077613036   -0.036166543   -0.005366601
     16        8           0.035820300    0.060797443   -0.001644256
     17        1          -0.013410833    0.002216869    0.001885768
 -------------------------------------------------------------------
 Cartesian Forces:  Max     0.084706705 RMS     0.021776293

 GradGradGradGradGradGradGradGradGradGradGradGradGradGradGradGradGradGrad
 Berny optimization.
 FormGI is forming the generalized inverse of G from B-inverse, IUseBI=4.
 Internal  Forces:  Max     0.085583819 RMS     0.015062912
 Search for a local minimum.
 Step number   1 out of a maximum of   86
 All quantities printed in internal units (Hartrees-Bohrs-Radians)
 Mixed Optimization -- RFO/linear search
 Second derivative matrix not updated -- first step.
 ITU=  0
     Eigenvalues ---    0.00237   0.00590   0.01295   0.01701   0.02070
     Eigenvalues ---    0.02070   0.02204   0.02292   0.02330   0.02376
     Eigenvalues ---    0.02468   0.02473   0.02681   0.02681   0.16000
     Eigenvalues ---    0.16000   0.16000   0.16000   0.16000   0.16000
     Eigenvalues ---    0.16000   0.22000   0.23472   0.23494   0.25000
     Eigenvalues ---    0.25000   0.25000   0.25000   0.28519   0.37230
     Eigenvalues ---    0.37230   0.37230   0.37230   0.37230   0.37230
     Eigenvalues ---    0.40989   0.41362   0.43364   0.45389   0.45389
     Eigenvalues ---    0.50975   0.53930   0.53930   0.55473   0.80209
 RFO step:  Lambda=-3.55802996D-02 EMin= 2.36824272D-03
 Linear search not attempted -- first point.
 Iteration  1 RMS(Cart)=  0.05745598 RMS(Int)=  0.00267821
 Iteration  2 RMS(Cart)=  0.00246984 RMS(Int)=  0.00004202
 Iteration  3 RMS(Cart)=  0.00002303 RMS(Int)=  0.00003942
 Iteration  4 RMS(Cart)=  0.00000000 RMS(Int)=  0.00003942
 Variable       Old X    -DE/DX   Delta X   Delta X   Delta X     New X
                                 (Linear)    (Quad)   (Total)
    R1        2.64826   0.00519   0.00000   0.00867   0.00863   2.65689
    R2        2.64826   0.00814   0.00000   0.01456   0.01453   2.66280
    R3        2.02201   0.00922   0.00000   0.02262   0.02262   2.04462
    R4        2.56096   0.01683   0.00000   0.02939   0.02938   2.59034
    R5        2.02201   0.00836   0.00000   0.02049   0.02049   2.04249
    R6        2.64826   0.02988   0.00000   0.06312   0.06314   2.71140
    R7        2.02201   0.00923   0.00000   0.02262   0.02262   2.04463
    R8        2.64826   0.02646   0.00000   0.05600   0.05604   2.70430
    R9        2.56096   0.01683   0.00000   0.02927   0.02927   2.59023
   R10        2.56096   0.01479   0.00000   0.02561   0.02562   2.58658
   R11        2.02201   0.00970   0.00000   0.02379   0.02379   2.04580
   R12        2.91018  -0.02953   0.00000  -0.09207  -0.09207   2.81811
   R13        2.02201   0.00973   0.00000   0.02386   0.02386   2.04586
   R14        2.02201   0.00987   0.00000   0.02420   0.02420   2.04620
   R15        2.37803  -0.08558   0.00000  -0.10217  -0.10217   2.27586
   R16        2.70231  -0.06238   0.00000  -0.14002  -0.14002   2.56229
   R17        1.81414   0.00939   0.00000   0.01591   0.01591   1.83005
    A1        2.09440   0.00788   0.00000   0.02300   0.02294   2.11733
    A2        2.09440  -0.00252   0.00000  -0.00425  -0.00422   2.09018
    A3        2.09440  -0.00536   0.00000  -0.01875  -0.01872   2.07567
    A4        2.09440  -0.00153   0.00000  -0.00948  -0.00953   2.08486
    A5        2.09440  -0.00063   0.00000  -0.00240  -0.00237   2.09202
    A6        2.09440   0.00216   0.00000   0.01188   0.01190   2.10630
    A7        2.09440  -0.00069   0.00000   0.00140   0.00140   2.09580
    A8        2.09440   0.00155   0.00000   0.00547   0.00547   2.09987
    A9        2.09440  -0.00086   0.00000  -0.00687  -0.00687   2.08752
   A10        2.09440  -0.00444   0.00000  -0.00874  -0.00868   2.08571
   A11        2.09440   0.00398   0.00000   0.01054   0.01051   2.10491
   A12        2.09440   0.00046   0.00000  -0.00180  -0.00183   2.09257
   A13        2.09440  -0.00305   0.00000  -0.00868  -0.00863   2.08577
   A14        2.09440   0.00324   0.00000   0.01313   0.01311   2.10750
   A15        2.09440  -0.00019   0.00000  -0.00446  -0.00448   2.08992
   A16        2.09440   0.00182   0.00000   0.00251   0.00250   2.09690
   A17        2.09440   0.00572   0.00000   0.02195   0.02196   2.11635
   A18        2.09440  -0.00754   0.00000  -0.02446  -0.02446   2.06993
   A19        2.09440   0.00275   0.00000   0.01405   0.01405   2.10845
   A20        2.09440   0.00295   0.00000   0.01511   0.01511   2.10950
   A21        2.09440  -0.00570   0.00000  -0.02916  -0.02916   2.06524
   A22        2.09440   0.00946   0.00000   0.03313   0.03309   2.12748
   A23        2.09440  -0.03134   0.00000  -0.10973  -0.10978   1.98462
   A24        2.09440   0.02188   0.00000   0.07660   0.07655   2.17094
   A25        1.91063  -0.01099   0.00000  -0.05619  -0.05619   1.85444
    D1       -0.00000  -0.00003   0.00000  -0.00052  -0.00053  -0.00053
    D2        3.14159   0.00000   0.00000  -0.00005  -0.00006   3.14153
    D3       -3.14159  -0.00010   0.00000  -0.00168  -0.00170   3.13990
    D4        0.00000  -0.00007   0.00000  -0.00121  -0.00122  -0.00122
    D5        0.00000  -0.00006   0.00000  -0.00082  -0.00082  -0.00082
    D6       -3.14159  -0.00018   0.00000  -0.00316  -0.00319   3.13840
    D7        3.14159   0.00001   0.00000   0.00034   0.00034  -3.14125
    D8       -0.00000  -0.00011   0.00000  -0.00200  -0.00203  -0.00203
    D9        0.00000   0.00003   0.00000   0.00052   0.00052   0.00052
   D10        3.14159   0.00002   0.00000   0.00033   0.00033  -3.14126
   D11       -3.14159   0.00001   0.00000   0.00006   0.00004  -3.14155
   D12       -0.00000  -0.00001   0.00000  -0.00014  -0.00014  -0.00014
   D13       -0.00000   0.00004   0.00000   0.00076   0.00077   0.00076
   D14       -3.14159  -0.00006   0.00000  -0.00089  -0.00089   3.14071
   D15       -3.14159   0.00006   0.00000   0.00095   0.00095  -3.14064
   D16        0.00000  -0.00004   0.00000  -0.00070  -0.00070  -0.00070
   D17        0.00000  -0.00013   0.00000  -0.00210  -0.00209  -0.00209
   D18        3.14159  -0.00009   0.00000  -0.00148  -0.00149   3.14011
   D19        3.14159  -0.00003   0.00000  -0.00045  -0.00045   3.14114
   D20       -0.00000   0.00001   0.00000   0.00016   0.00015   0.00015
   D21       -0.00000  -0.00003   0.00000  -0.00041  -0.00040  -0.00040
   D22       -3.14159   0.00003   0.00000   0.00053   0.00054  -3.14105
   D23        3.14159  -0.00013   0.00000  -0.00205  -0.00206   3.13953
   D24        0.00000  -0.00007   0.00000  -0.00111  -0.00112  -0.00112
   D25       -0.00000   0.00013   0.00000   0.00210   0.00210   0.00210
   D26        3.14159   0.00026   0.00000   0.00444   0.00441  -3.13718
   D27       -3.14159   0.00010   0.00000   0.00149   0.00150  -3.14009
   D28        0.00000   0.00022   0.00000   0.00383   0.00381   0.00381
   D29       -3.14159  -0.00011   0.00000  -0.00267  -0.00259   3.13901
   D30        0.00000   0.00062   0.00000   0.01502   0.01493   0.01493
   D31        0.00000  -0.00024   0.00000  -0.00501  -0.00492  -0.00492
   D32       -3.14159   0.00049   0.00000   0.01268   0.01260  -3.12900
   D33       -2.61799  -0.00718   0.00000  -0.14917  -0.14934  -2.76733
   D34        0.52360  -0.00644   0.00000  -0.13148  -0.13131   0.39229
         Item               Value     Threshold  Converged?
 Maximum Force            0.085584     0.000450     NO 
 RMS     Force            0.015063     0.000300     NO 
 Maximum Displacement     0.225793     0.001800     NO 
 RMS     Displacement     0.057954     0.001200     NO 
 Predicted change in Energy=-1.988794D-02
 GradGradGradGradGradGradGradGradGradGradGradGradGradGradGradGradGradGrad

                          Input orientation:                          
 ---------------------------------------------------------------------
 Center     Atomic      Atomic             Coordinates (Angstroms)
 Number     Number       Type             X           Y           Z
 ---------------------------------------------------------------------
      1          6           0        0.034251   -1.823299   -0.000021
      2          6           0        1.245095   -1.109484   -0.032726
      3          6           0        1.219862    0.261028   -0.030225
      4          6           0       -0.034245    0.957145    0.006182
      5          6           0       -1.254264    0.209965    0.040695
      6          6           0       -1.207358   -1.157981    0.035989
      7          1           0        0.048375   -2.905169   -0.003429
      8          1           0        2.184256   -1.643763   -0.059965
      9          1           0        2.143323    0.824273   -0.055453
     10          1           0       -2.211684    0.714444    0.069856
     11          6           0       -0.071925    2.327313    0.010081
     12          1           0        0.842012    2.907160   -0.013815
     13          1           0       -1.015920    2.856991    0.038000
     14          6           0       -2.491044   -1.916357    0.066592
     15          8           0       -3.558423   -1.359582    0.100126
     16          8           0       -2.328963   -3.262514    0.074664
     17          1           0       -3.162010   -3.637722   -0.246409
 ---------------------------------------------------------------------
                    Distance matrix (angstroms):
                    1          2          3          4          5
     1  C    0.000000
     2  C    1.405967   0.000000
     3  C    2.398126   1.370747   0.000000
     4  C    2.781295   2.430881   1.434814   0.000000
     5  C    2.407507   2.827213   2.475669   1.431054   0.000000
     6  C    1.409091   2.453895   2.812360   2.418851   1.368758
     7  H    1.081968   2.158120   3.376078   3.863210   3.376814
     8  H    2.158321   1.080842   2.135221   3.419188   3.907667
     9  H    3.385394   2.132311   1.081971   2.182489   3.454015
    10  H    3.389579   3.909803   3.462819   2.191848   1.082591
    11  C    4.151982   3.680754   2.437185   1.370691   2.425289
    12  H    4.798949   4.036863   2.673023   2.137939   3.416461
    13  H    4.796814   4.566193   3.426719   2.138717   2.657737
    14  C    2.527887   3.823564   4.303627   3.781074   2.459988
    15  O    3.623861   4.811859   5.047314   4.218516   2.788577
    16  O    2.767977   4.173842   5.002051   4.803743   3.635140
    17  H    3.683602   5.085295   5.869224   5.564128   4.304256
                    6          7          8          9         10
     6  C    0.000000
     7  H    2.151995   0.000000
     8  H    3.427570   2.481195   0.000000
     9  H    3.894196   4.277880   2.468380   0.000000
    10  H    2.125040   4.267884   4.990219   4.358194   0.000000
    11  C    3.665673   5.233882   4.567790   2.677825   2.680203
    12  H    4.552776   5.866271   4.744960   2.456330   3.760328
    13  H    4.019535   5.859772   5.523361   3.757857   2.453850
    14  C    1.491281   2.726041   4.684950   5.385472   2.645594
    15  O    2.360564   3.925373   5.751935   6.107646   2.473096
    16  O    2.385068   2.405313   4.796626   6.059711   3.978690
    17  H    3.170099   3.301855   5.709045   6.934870   4.465926
                   11         12         13         14         15
    11  C    0.000000
    12  H    1.082624   0.000000
    13  H    1.082804   1.859332   0.000000
    14  C    4.885086   5.863620   4.996165   0.000000
    15  O    5.075133   6.130408   4.924193   1.204334   0.000000
    16  O    6.028645   6.937419   6.258896   1.355903   2.265694
    17  H    6.722801   7.676052   6.846013   1.873836   2.338194
                   16         17
    16  O    0.000000
    17  H    0.968420   0.000000
 Stoichiometry    C8H7O2(1+)
 Framework group  C1[X(C8H7O2)]
 Deg. of freedom    45
 Full point group                 C1      NOp   1
 Largest Abelian subgroup         C1      NOp   1
 Largest concise Abelian subgroup C1      NOp   1
                         Standard orientation:                         
 ---------------------------------------------------------------------
 Center     Atomic      Atomic             Coordinates (Angstroms)
 Number     Number       Type             X           Y           Z
 ---------------------------------------------------------------------
      1          6           0       -0.174380    1.430151   -0.005121
      2          6           0        1.172400    1.833768   -0.000343
      3          6           0        2.160690    0.883921    0.004226
      4          6           0        1.818854   -0.509577    0.003466
      5          6           0        0.441337   -0.897289   -0.003038
      6          6           0       -0.530315    0.066756   -0.005951
      7          1           0       -0.958444    2.175734   -0.007146
      8          1           0        1.418867    2.886133    0.000140
      9          1           0        3.201655    1.178942    0.008244
     10          1           0        0.160575   -1.942838   -0.005110
     11          6           0        2.798415   -1.468348    0.006958
     12          1           0        3.845071   -1.191622    0.009968
     13          1           0        2.545279   -2.521147    0.005898
     14          6           0       -1.959244   -0.359951   -0.006956
     15          8           0       -2.276407   -1.521768   -0.010316
     16          8           0       -2.836843    0.673466   -0.025514
     17          1           0       -3.673544    0.324634    0.315197
 ---------------------------------------------------------------------
 Rotational constants (GHZ):           2.7300905           0.9752285           0.7187802
 Standard basis: def2TZVP (5D, 7F)
 There are   402 symmetry adapted cartesian basis functions of A   symmetry.
 There are   352 symmetry adapted basis functions of A   symmetry.
   352 basis functions,   566 primitive gaussians,   402 cartesian basis functions
    35 alpha electrons       35 beta electrons
       nuclear repulsion energy       477.3773418305 Hartrees.
 NAtoms=   17 NActive=   17 NUniq=   17 SFac= 1.00D+00 NAtFMM=   60 NAOKFM=F Big=F
 Integral buffers will be    131072 words long.
 Raffenetti 2 integral format.
 Two-electron integral symmetry is turned on.
 One-electron integrals computed using PRISM.
   1 Symmetry operations used in ECPInt.
 ECPInt:  NShTT=    9591 NPrTT=   29644 LenC2=    9194 LenP2D=   22156.
 LDataN:  DoStor=T MaxTD1= 6 Len=  172
 NBasis=   352 RedAO= T EigKep=  8.60D-06  NBF=   352
 NBsUse=   352 1.00D-06 EigRej= -1.00D+00 NBFU=   352
 Initial guess from the checkpoint file:  "C6H5CH2+.chk"
 B after Tr=     0.000000    0.000000   -0.000000
         Rot=    0.999999   -0.000059   -0.000028   -0.001547 Ang=  -0.18 deg.
 ExpMin= 9.52D-02 ExpMax= 2.70D+04 ExpMxC= 9.22D+02 IAcc=2 IRadAn=         4 AccDes= 0.00D+00
 Harris functional with IExCor=  402 and IRadAn=       4 diagonalized for initial guess.
 HarFok:  IExCor=  402 AccDes= 0.00D+00 IRadAn=         4 IDoV= 1 UseB2=F ITyADJ=14
 ICtDFT=  3500011 ScaDFX=  1.000000  1.000000  1.000000  1.000000
 FoFCou: FMM=F IPFlag=           0 FMFlag=      100000 FMFlg1=           0
         NFxFlg=           0 DoJE=T BraDBF=F KetDBF=T FulRan=T
         wScrn=  0.000000 ICntrl=       500 IOpCl=  0 I1Cent=   200000004 NGrid=           0
         NMat0=    1 NMatS0=      1 NMatT0=    0 NMatD0=    1 NMtDS0=    0 NMtDT0=    0
 Petite list used in FoFCou.
 Requested convergence on RMS density matrix=1.00D-08 within 128 cycles.
 Requested convergence on MAX density matrix=1.00D-06.
 Requested convergence on             energy=1.00D-06.
 No special actions if energy rises.
 Integral accuracy reduced to 1.0D-05 until final iterations.
 Initial convergence to 1.0D-05 achieved.  Increase integral accuracy.
 SCF Done:  E(RB3LYP) =  -459.402585369     A.U. after   13 cycles
            NFock= 13  Conv=0.64D-08     -V/T= 2.0048
   1 Symmetry operations used in ECPInt.
 ECPInt:  NShTT=    9591 NPrTT=   29644 LenC2=    9194 LenP2D=   22156.
 LDataN:  DoStor=T MaxTD1= 7 Len=  274
 Calling FoFJK, ICntrl=      2127 FMM=F ISym2X=0 I1Cent= 0 IOpClX= 0 NMat=1 NMatS=1 NMatT=0.
 ***** Axes restored to original set *****
 -------------------------------------------------------------------
 Center     Atomic                   Forces (Hartrees/Bohr)
 Number     Number              X              Y              Z
 -------------------------------------------------------------------
      1        6           0.003156919    0.006211392   -0.000185290
      2        6          -0.001511181   -0.000540090    0.000083482
      3        6           0.002213935   -0.003011543   -0.000047391
      4        6          -0.000347429    0.007026041   -0.000190476
      5        6           0.001208735    0.001196101    0.000073611
      6        6           0.003461311   -0.009332776    0.002419137
      7        1          -0.000425938   -0.000292705    0.000003680
      8        1           0.000214961   -0.000236608    0.000029073
      9        1          -0.000124010    0.001305194   -0.000028883
     10        1          -0.000402078   -0.000001952    0.000111304
     11        6           0.000617940   -0.007145987    0.000021166
     12        1          -0.000092182    0.001819422    0.000019783
     13        1           0.000049033    0.001487660   -0.000022410
     14        6          -0.014987562   -0.003520338    0.005763549
     15        8           0.007062637   -0.004450823   -0.004462551
     16        8           0.004253074    0.014993725   -0.010159245
     17        1          -0.004348165   -0.005506711    0.006571461
 -------------------------------------------------------------------
 Cartesian Forces:  Max     0.014993725 RMS     0.004602014

 GradGradGradGradGradGradGradGradGradGradGradGradGradGradGradGradGradGrad
 Berny optimization.
 Using GEDIIS/GDIIS optimizer.
 FormGI is forming the generalized inverse of G from B-inverse, IUseBI=4.
 Internal  Forces:  Max     0.009452451 RMS     0.002620776
 Search for a local minimum.
 Step number   2 out of a maximum of   86
 All quantities printed in internal units (Hartrees-Bohrs-Radians)
 Mixed Optimization -- RFO/linear search
 Update second derivatives using D2CorX and points    1    2
 DE= -2.10D-02 DEPred=-1.99D-02 R= 1.05D+00
 TightC=F SS=  1.41D+00  RLast= 3.43D-01 DXNew= 5.0454D-01 1.0303D+00
 Trust test= 1.05D+00 RLast= 3.43D-01 DXMaxT set to 5.05D-01
 ITU=  1  0
 Use linear search instead of GDIIS.
     Eigenvalues ---    0.00237   0.00605   0.01250   0.01698   0.02070
     Eigenvalues ---    0.02070   0.02203   0.02292   0.02331   0.02375
     Eigenvalues ---    0.02468   0.02473   0.02681   0.02681   0.15855
     Eigenvalues ---    0.16000   0.16000   0.16000   0.16000   0.16000
     Eigenvalues ---    0.16415   0.22005   0.23020   0.23461   0.24490
     Eigenvalues ---    0.24999   0.25000   0.25166   0.30176   0.37221
     Eigenvalues ---    0.37230   0.37230   0.37230   0.37230   0.37442
     Eigenvalues ---    0.39801   0.41438   0.43506   0.45389   0.45805
     Eigenvalues ---    0.51083   0.53763   0.54810   0.55411   0.78517
 RFO step:  Lambda=-5.51355610D-03 EMin= 2.36851401D-03
 Quartic linear search produced a step of  0.12783.
 Iteration  1 RMS(Cart)=  0.03174863 RMS(Int)=  0.02526395
 Iteration  2 RMS(Cart)=  0.02346469 RMS(Int)=  0.00191325
 Iteration  3 RMS(Cart)=  0.00196932 RMS(Int)=  0.00014693
 Iteration  4 RMS(Cart)=  0.00000826 RMS(Int)=  0.00014683
 Iteration  5 RMS(Cart)=  0.00000000 RMS(Int)=  0.00014683
 Variable       Old X    -DE/DX   Delta X   Delta X   Delta X     New X
                                 (Linear)    (Quad)   (Total)
    R1        2.65689  -0.00098   0.00110  -0.00333  -0.00223   2.65467
    R2        2.66280   0.00014   0.00186  -0.00072   0.00115   2.66395
    R3        2.04462   0.00029   0.00289  -0.00067   0.00222   2.04684
    R4        2.59034  -0.00078   0.00376  -0.00356   0.00018   2.59052
    R5        2.04249   0.00030   0.00262  -0.00048   0.00214   2.04463
    R6        2.71140   0.00136   0.00807  -0.00052   0.00754   2.71894
    R7        2.04463   0.00057   0.00289   0.00017   0.00306   2.04769
    R8        2.70430   0.00224   0.00716   0.00235   0.00952   2.71381
    R9        2.59023  -0.00385   0.00374  -0.00959  -0.00584   2.58439
   R10        2.58658   0.00336   0.00328   0.00559   0.00887   2.59545
   R11        2.04580   0.00036   0.00304  -0.00054   0.00250   2.04830
   R12        2.81811   0.00609  -0.01177   0.03018   0.01841   2.83652
   R13        2.04586   0.00090   0.00305   0.00104   0.00409   2.04995
   R14        2.04620   0.00068   0.00309   0.00039   0.00348   2.04968
   R15        2.27586  -0.00844  -0.01306  -0.00620  -0.01926   2.25660
   R16        2.56229  -0.00945  -0.01790  -0.01622  -0.03412   2.52816
   R17        1.83005   0.00370   0.00203   0.00640   0.00843   1.83848
    A1        2.11733   0.00300   0.00293   0.01126   0.01421   2.13154
    A2        2.09018  -0.00106  -0.00054  -0.00341  -0.00396   2.08622
    A3        2.07567  -0.00194  -0.00239  -0.00785  -0.01025   2.06543
    A4        2.08486   0.00050  -0.00122   0.00139   0.00017   2.08503
    A5        2.09202  -0.00035  -0.00030  -0.00066  -0.00096   2.09106
    A6        2.10630  -0.00015   0.00152  -0.00073   0.00079   2.10709
    A7        2.09580  -0.00058   0.00018  -0.00375  -0.00359   2.09221
    A8        2.09987   0.00150   0.00070   0.00934   0.01005   2.10991
    A9        2.08752  -0.00091  -0.00088  -0.00558  -0.00645   2.08107
   A10        2.08571  -0.00061  -0.00111  -0.00129  -0.00241   2.08330
   A11        2.10491  -0.00004   0.00134  -0.00132   0.00003   2.10493
   A12        2.09257   0.00064  -0.00023   0.00261   0.00238   2.09495
   A13        2.08577   0.00155  -0.00110   0.00946   0.00836   2.09413
   A14        2.10750  -0.00058   0.00168  -0.00431  -0.00264   2.10486
   A15        2.08992  -0.00097  -0.00057  -0.00515  -0.00572   2.08419
   A16        2.09690  -0.00387   0.00032  -0.01708  -0.01674   2.08015
   A17        2.11635   0.00463   0.00281   0.01840   0.02120   2.13755
   A18        2.06993  -0.00076  -0.00313  -0.00133  -0.00446   2.06547
   A19        2.10845   0.00126   0.00180   0.00704   0.00884   2.11729
   A20        2.10950   0.00072   0.00193   0.00332   0.00525   2.11475
   A21        2.06524  -0.00198  -0.00373  -0.01037  -0.01409   2.05114
   A22        2.12748   0.00370   0.00423   0.01381   0.01730   2.14478
   A23        1.98462  -0.00608  -0.01403  -0.01731  -0.03208   1.95254
   A24        2.17094   0.00239   0.00978   0.00466   0.01371   2.18466
   A25        1.85444   0.00753  -0.00718   0.05626   0.04908   1.90352
    D1       -0.00053  -0.00004  -0.00007  -0.00153  -0.00161  -0.00214
    D2        3.14153  -0.00002  -0.00001  -0.00080  -0.00081   3.14072
    D3        3.13990  -0.00004  -0.00022  -0.00100  -0.00122   3.13867
    D4       -0.00122  -0.00002  -0.00016  -0.00027  -0.00043  -0.00165
    D5       -0.00082  -0.00000  -0.00010   0.00044   0.00034  -0.00048
    D6        3.13840  -0.00005  -0.00041  -0.00068  -0.00110   3.13730
    D7       -3.14125  -0.00000   0.00004  -0.00009  -0.00005  -3.14130
    D8       -0.00203  -0.00005  -0.00026  -0.00121  -0.00148  -0.00352
    D9        0.00052   0.00004   0.00007   0.00117   0.00123   0.00176
   D10       -3.14126   0.00003   0.00004   0.00118   0.00122  -3.14004
   D11       -3.14155   0.00001   0.00001   0.00044   0.00044  -3.14111
   D12       -0.00014   0.00001  -0.00002   0.00045   0.00042   0.00028
   D13        0.00076   0.00001   0.00010   0.00021   0.00031   0.00107
   D14        3.14071  -0.00003  -0.00011  -0.00077  -0.00088   3.13982
   D15       -3.14064   0.00001   0.00012   0.00020   0.00032  -3.14032
   D16       -0.00070  -0.00003  -0.00009  -0.00078  -0.00087  -0.00157
   D17       -0.00209  -0.00006  -0.00027  -0.00132  -0.00159  -0.00368
   D18        3.14011  -0.00005  -0.00019  -0.00115  -0.00134   3.13876
   D19        3.14114  -0.00002  -0.00006  -0.00034  -0.00041   3.14073
   D20        0.00015  -0.00001   0.00002  -0.00017  -0.00016  -0.00000
   D21       -0.00040   0.00001  -0.00005   0.00055   0.00050   0.00010
   D22       -3.14105  -0.00000   0.00007  -0.00016  -0.00009  -3.14114
   D23        3.13953  -0.00003  -0.00026  -0.00044  -0.00070   3.13883
   D24       -0.00112  -0.00004  -0.00014  -0.00115  -0.00129  -0.00241
   D25        0.00210   0.00005   0.00027   0.00098   0.00125   0.00335
   D26       -3.13718   0.00009   0.00056   0.00205   0.00259  -3.13459
   D27       -3.14009   0.00004   0.00019   0.00081   0.00100  -3.13909
   D28        0.00381   0.00008   0.00049   0.00187   0.00235   0.00616
   D29        3.13901   0.00039  -0.00033   0.04123   0.04092  -3.10326
   D30        0.01493  -0.00017   0.00191  -0.02894  -0.02704  -0.01211
   D31       -0.00492   0.00034  -0.00063   0.04010   0.03948   0.03455
   D32       -3.12900  -0.00022   0.00161  -0.03007  -0.02849   3.12570
   D33       -2.76733  -0.00661  -0.01909  -0.29775  -0.31691  -3.08424
   D34        0.39229  -0.00720  -0.01679  -0.37004  -0.38676   0.00553
         Item               Value     Threshold  Converged?
 Maximum Force            0.009452     0.000450     NO 
 RMS     Force            0.002621     0.000300     NO 
 Maximum Displacement     0.376065     0.001800     NO 
 RMS     Displacement     0.053596     0.001200     NO 
 Predicted change in Energy=-4.339990D-03
 GradGradGradGradGradGradGradGradGradGradGradGradGradGradGradGradGradGrad

                          Input orientation:                          
 ---------------------------------------------------------------------
 Center     Atomic      Atomic             Coordinates (Angstroms)
 Number     Number       Type             X           Y           Z
 ---------------------------------------------------------------------
      1          6           0        0.038041   -1.816830   -0.017745
      2          6           0        1.250333   -1.107312   -0.036825
      3          6           0        1.229682    0.263319   -0.024253
      4          6           0       -0.028263    0.960832    0.010436
      5          6           0       -1.250750    0.207591    0.032852
      6          6           0       -1.211539   -1.165206    0.016722
      7          1           0        0.053012   -2.899794   -0.030402
      8          1           0        2.188397   -1.645870   -0.062408
      9          1           0        2.150860    0.833719   -0.039919
     10          1           0       -2.209460    0.712474    0.061719
     11          6           0       -0.066215    2.327821    0.025453
     12          1           0        0.844351    2.917261    0.011611
     13          1           0       -1.009301    2.862930    0.052003
     14          6           0       -2.511523   -1.915460    0.031862
     15          8           0       -3.574394   -1.371222    0.022592
     16          8           0       -2.323323   -3.239457   -0.006153
     17          1           0       -3.188568   -3.682346   -0.047404
 ---------------------------------------------------------------------
                    Distance matrix (angstroms):
                    1          2          3          4          5
     1  C    0.000000
     2  C    1.404789   0.000000
     3  C    2.397305   1.370844   0.000000
     4  C    2.778597   2.431926   1.438802   0.000000
     5  C    2.400380   2.826525   2.481715   1.436089   0.000000
     6  C    1.409700   2.463135   2.828767   2.433150   1.373451
     7  H    1.083141   2.155600   3.374889   3.861698   3.370406
     8  H    2.157603   1.081972   2.136725   3.422541   3.907957
     9  H    3.389676   2.139757   1.083592   2.183407   3.459520
    10  H    3.384517   3.910435   3.469413   2.195891   1.083912
    11  C    4.146188   3.679310   2.438030   1.367598   2.428694
    12  H    4.802356   4.045289   2.682010   2.142211   3.425232
    13  H    4.796034   4.569098   3.431739   2.140593   2.666363
    14  C    2.551953   3.848296   4.329761   3.800013   2.469189
    15  O    3.640039   4.832305   5.074747   4.244252   2.809284
    16  O    2.756817   4.161490   4.989349   4.786440   3.610273
    17  H    3.727202   5.131739   5.923658   5.616936   4.346629
                    6          7          8          9         10
     6  C    0.000000
     7  H    2.147116   0.000000
     8  H    3.434656   2.476534   0.000000
     9  H    3.912114   4.282543   2.479975   0.000000
    10  H    2.126865   4.263302   4.991828   4.363189   0.000000
    11  C    3.676015   5.229273   4.569597   2.674329   2.684057
    12  H    4.570913   5.870785   4.757532   2.459831   3.766877
    13  H    4.033364   5.860400   5.528801   3.756695   2.462710
    14  C    1.501022   2.747658   4.708589   5.413035   2.645405
    15  O    2.371826   3.936676   5.769958   6.135487   2.491257
    16  O    2.353530   2.400610   4.785217   6.050637   3.954153
    17  H    3.201366   3.334743   5.749714   6.993167   4.503887
                   11         12         13         14         15
    11  C    0.000000
    12  H    1.084786   0.000000
    13  H    1.084646   1.854887   0.000000
    14  C    4.897449   5.883663   5.009000   0.000000
    15  O    5.098063   6.157639   4.950617   1.194143   0.000000
    16  O    6.007506   6.923847   6.242528   1.337846   2.248624
    17  H    6.773219   7.734515   6.899255   1.893821   2.344153
                   16         17
    16  O    0.000000
    17  H    0.972882   0.000000
 Stoichiometry    C8H7O2(1+)
 Framework group  C1[X(C8H7O2)]
 Deg. of freedom    45
 Full point group                 C1      NOp   1
 Largest Abelian subgroup         C1      NOp   1
 Largest concise Abelian subgroup C1      NOp   1
                         Standard orientation:                         
 ---------------------------------------------------------------------
 Center     Atomic      Atomic             Coordinates (Angstroms)
 Number     Number       Type             X           Y           Z
 ---------------------------------------------------------------------
      1          6           0       -0.159706    1.430783   -0.005619
      2          6           0        1.187029    1.830350    0.003417
      3          6           0        2.172930    0.877883    0.007824
      4          6           0        1.821552   -0.517337    0.000985
      5          6           0        0.435937   -0.894512   -0.011762
      6          6           0       -0.538846    0.073045   -0.012923
      7          1           0       -0.939603    2.182418   -0.006357
      8          1           0        1.435620    2.883367    0.008010
      9          1           0        3.219078    1.160147    0.016239
     10          1           0        0.148652   -1.939629   -0.019728
     11          6           0        2.792960   -1.479983    0.003170
     12          1           0        3.845740   -1.218513    0.010155
     13          1           0        2.538417   -2.534323   -0.002354
     14          6           0       -1.975264   -0.362561   -0.017166
     15          8           0       -2.305002   -1.509823    0.015079
     16          8           0       -2.812520    0.680738    0.001853
     17          1           0       -3.727288    0.353202    0.051033
 ---------------------------------------------------------------------
 Rotational constants (GHZ):           2.7329139           0.9717553           0.7168904
 Standard basis: def2TZVP (5D, 7F)
 There are   402 symmetry adapted cartesian basis functions of A   symmetry.
 There are   352 symmetry adapted basis functions of A   symmetry.
   352 basis functions,   566 primitive gaussians,   402 cartesian basis functions
    35 alpha electrons       35 beta electrons
       nuclear repulsion energy       477.2762809903 Hartrees.
 NAtoms=   17 NActive=   17 NUniq=   17 SFac= 1.00D+00 NAtFMM=   60 NAOKFM=F Big=F
 Integral buffers will be    131072 words long.
 Raffenetti 2 integral format.
 Two-electron integral symmetry is turned on.
 One-electron integrals computed using PRISM.
   1 Symmetry operations used in ECPInt.
 ECPInt:  NShTT=    9591 NPrTT=   29644 LenC2=    9191 LenP2D=   22134.
 LDataN:  DoStor=T MaxTD1= 6 Len=  172
 NBasis=   352 RedAO= T EigKep=  8.60D-06  NBF=   352
 NBsUse=   352 1.00D-06 EigRej= -1.00D+00 NBFU=   352
 Initial guess from the checkpoint file:  "C6H5CH2+.chk"
 B after Tr=    -0.000000    0.000000   -0.000000
         Rot=    0.999996    0.000029    0.000037    0.002728 Ang=   0.31 deg.
 ExpMin= 9.52D-02 ExpMax= 2.70D+04 ExpMxC= 9.22D+02 IAcc=2 IRadAn=         4 AccDes= 0.00D+00
 Harris functional with IExCor=  402 and IRadAn=       4 diagonalized for initial guess.
 HarFok:  IExCor=  402 AccDes= 0.00D+00 IRadAn=         4 IDoV= 1 UseB2=F ITyADJ=14
 ICtDFT=  3500011 ScaDFX=  1.000000  1.000000  1.000000  1.000000
 FoFCou: FMM=F IPFlag=           0 FMFlag=      100000 FMFlg1=           0
         NFxFlg=           0 DoJE=T BraDBF=F KetDBF=T FulRan=T
         wScrn=  0.000000 ICntrl=       500 IOpCl=  0 I1Cent=   200000004 NGrid=           0
         NMat0=    1 NMatS0=      1 NMatT0=    0 NMatD0=    1 NMtDS0=    0 NMtDT0=    0
 Petite list used in FoFCou.
 Requested convergence on RMS density matrix=1.00D-08 within 128 cycles.
 Requested convergence on MAX density matrix=1.00D-06.
 Requested convergence on             energy=1.00D-06.
 No special actions if energy rises.
 Integral accuracy reduced to 1.0D-05 until final iterations.
 Initial convergence to 1.0D-05 achieved.  Increase integral accuracy.
 SCF Done:  E(RB3LYP) =  -459.406004926     A.U. after   12 cycles
            NFock= 12  Conv=0.97D-08     -V/T= 2.0048
   1 Symmetry operations used in ECPInt.
 ECPInt:  NShTT=    9591 NPrTT=   29644 LenC2=    9191 LenP2D=   22134.
 LDataN:  DoStor=T MaxTD1= 7 Len=  274
 Calling FoFJK, ICntrl=      2127 FMM=F ISym2X=0 I1Cent= 0 IOpClX= 0 NMat=1 NMatS=1 NMatT=0.
 ***** Axes restored to original set *****
 -------------------------------------------------------------------
 Center     Atomic                   Forces (Hartrees/Bohr)
 Number     Number              X              Y              Z
 -------------------------------------------------------------------
      1        6          -0.000523065    0.000899988    0.000096586
      2        6          -0.000371221    0.001081289   -0.000153643
      3        6           0.000022266   -0.001087672    0.000008508
      4        6          -0.000506697    0.001463631    0.000207203
      5        6           0.000905451   -0.000537432   -0.000092943
      6        6           0.003346686    0.000641156    0.002207663
      7        1           0.000264550    0.000291385    0.000076453
      8        1          -0.000535105    0.000082553   -0.000002306
      9        1          -0.000680253   -0.000040258    0.000008555
     10        1           0.000376274    0.000082268   -0.000092344
     11        6           0.000002654   -0.002442120   -0.000022897
     12        1          -0.000650713    0.000060405   -0.000033124
     13        1           0.000602103    0.000144172    0.000006196
     14        6           0.002754654   -0.004565879   -0.006488502
     15        8          -0.006463337    0.004959255    0.002383029
     16        8           0.001017823   -0.001647631    0.001073391
     17        1           0.000437927    0.000614889    0.000818175
 -------------------------------------------------------------------
 Cartesian Forces:  Max     0.006488502 RMS     0.001879865

 GradGradGradGradGradGradGradGradGradGradGradGradGradGradGradGradGradGrad
 Berny optimization.
 Using GEDIIS/GDIIS optimizer.
 FormGI is forming the generalized inverse of G from B-inverse, IUseBI=4.
 Internal  Forces:  Max     0.007994805 RMS     0.001226019
 Search for a local minimum.
 Step number   3 out of a maximum of   86
 All quantities printed in internal units (Hartrees-Bohrs-Radians)
 Mixed Optimization -- RFO/linear search
 Update second derivatives using D2CorX and points    2    3
 DE= -3.42D-03 DEPred=-4.34D-03 R= 7.88D-01
 TightC=F SS=  1.41D+00  RLast= 5.13D-01 DXNew= 8.4853D-01 1.5375D+00
 Trust test= 7.88D-01 RLast= 5.13D-01 DXMaxT set to 8.49D-01
 ITU=  1  1  0
 Use linear search instead of GDIIS.
     Eigenvalues ---    0.00237   0.00575   0.01683   0.01979   0.02070
     Eigenvalues ---    0.02075   0.02204   0.02293   0.02332   0.02375
     Eigenvalues ---    0.02469   0.02473   0.02681   0.02682   0.15549
     Eigenvalues ---    0.16000   0.16000   0.16000   0.16000   0.16014
     Eigenvalues ---    0.16411   0.22012   0.22343   0.23456   0.24350
     Eigenvalues ---    0.24999   0.25082   0.25265   0.29624   0.37226
     Eigenvalues ---    0.37230   0.37230   0.37230   0.37234   0.37441
     Eigenvalues ---    0.40100   0.41427   0.43553   0.45390   0.45933
     Eigenvalues ---    0.51032   0.53773   0.54645   0.55389   0.81118
 RFO step:  Lambda=-2.31297012D-03 EMin= 2.36948423D-03
 Quartic linear search produced a step of -0.00201.
 Iteration  1 RMS(Cart)=  0.06858000 RMS(Int)=  0.01555961
 Iteration  2 RMS(Cart)=  0.02311624 RMS(Int)=  0.00461672
 Iteration  3 RMS(Cart)=  0.00085231 RMS(Int)=  0.00454168
 Iteration  4 RMS(Cart)=  0.00000350 RMS(Int)=  0.00454168
 Iteration  5 RMS(Cart)=  0.00000005 RMS(Int)=  0.00454168
 Variable       Old X    -DE/DX   Delta X   Delta X   Delta X     New X
                                 (Linear)    (Quad)   (Total)
    R1        2.65467  -0.00070   0.00000  -0.00233  -0.00232   2.65234
    R2        2.66395  -0.00127  -0.00000  -0.00255  -0.00256   2.66139
    R3        2.04684  -0.00029  -0.00000  -0.00038  -0.00039   2.04645
    R4        2.59052  -0.00141  -0.00000  -0.00294  -0.00294   2.58758
    R5        2.04463  -0.00050  -0.00000  -0.00094  -0.00094   2.04369
    R6        2.71894  -0.00091  -0.00002  -0.00053  -0.00054   2.71840
    R7        2.04769  -0.00060  -0.00001  -0.00092  -0.00093   2.04676
    R8        2.71381  -0.00149  -0.00002  -0.00103  -0.00105   2.71276
    R9        2.58439  -0.00224   0.00001  -0.00637  -0.00636   2.57802
   R10        2.59545  -0.00095  -0.00002   0.00072   0.00070   2.59615
   R11        2.04830  -0.00030  -0.00001  -0.00033  -0.00034   2.04796
   R12        2.83652   0.00225  -0.00004   0.01483   0.01479   2.85131
   R13        2.04995  -0.00051  -0.00001  -0.00038  -0.00039   2.04956
   R14        2.04968  -0.00045  -0.00001  -0.00043  -0.00043   2.04925
   R15        2.25660   0.00799   0.00004   0.00520   0.00524   2.26184
   R16        2.52816   0.00117   0.00007  -0.00603  -0.00596   2.52220
   R17        1.83848  -0.00070  -0.00002   0.00122   0.00121   1.83969
    A1        2.13154  -0.00010  -0.00003   0.00387   0.00384   2.13538
    A2        2.08622  -0.00023   0.00001  -0.00266  -0.00265   2.08357
    A3        2.06543   0.00032   0.00002  -0.00121  -0.00120   2.06423
    A4        2.08503   0.00018  -0.00000   0.00103   0.00103   2.08606
    A5        2.09106  -0.00029   0.00000  -0.00191  -0.00191   2.08915
    A6        2.10709   0.00011  -0.00000   0.00089   0.00088   2.10798
    A7        2.09221  -0.00009   0.00001  -0.00160  -0.00159   2.09062
    A8        2.10991   0.00038  -0.00002   0.00534   0.00533   2.11524
    A9        2.08107  -0.00029   0.00001  -0.00375  -0.00373   2.07733
   A10        2.08330  -0.00014   0.00000  -0.00127  -0.00127   2.08203
   A11        2.10493   0.00018  -0.00000   0.00063   0.00063   2.10557
   A12        2.09495  -0.00005  -0.00000   0.00065   0.00064   2.09559
   A13        2.09413   0.00038  -0.00002   0.00433   0.00431   2.09844
   A14        2.10486  -0.00044   0.00001  -0.00330  -0.00330   2.10156
   A15        2.08419   0.00007   0.00001  -0.00102  -0.00101   2.08318
   A16        2.08015  -0.00024   0.00003  -0.00635  -0.00631   2.07384
   A17        2.13755   0.00127  -0.00004   0.01141   0.01136   2.14891
   A18        2.06547  -0.00103   0.00001  -0.00507  -0.00506   2.06041
   A19        2.11729   0.00026  -0.00002   0.00423   0.00421   2.12150
   A20        2.11475   0.00030  -0.00001   0.00332   0.00331   2.11806
   A21        2.05114  -0.00056   0.00003  -0.00755  -0.00752   2.04362
   A22        2.14478  -0.00130  -0.00003   0.00580  -0.01652   2.12826
   A23        1.95254  -0.00053   0.00006  -0.00484  -0.02703   1.92550
   A24        2.18466   0.00199  -0.00003   0.01721  -0.00602   2.17864
   A25        1.90352  -0.00066  -0.00010   0.01226   0.01216   1.91568
    D1       -0.00214   0.00007   0.00000   0.00234   0.00235   0.00021
    D2        3.14072   0.00003   0.00000   0.00120   0.00121  -3.14126
    D3        3.13867   0.00005   0.00000   0.00145   0.00145   3.14013
    D4       -0.00165   0.00001   0.00000   0.00031   0.00031  -0.00134
    D5       -0.00048  -0.00005  -0.00000  -0.00165  -0.00165  -0.00213
    D6        3.13730  -0.00009   0.00000  -0.00426  -0.00427   3.13303
    D7       -3.14130  -0.00002   0.00000  -0.00077  -0.00076   3.14112
    D8       -0.00352  -0.00006   0.00000  -0.00338  -0.00339  -0.00690
    D9        0.00176  -0.00003  -0.00000  -0.00095  -0.00095   0.00081
   D10       -3.14004  -0.00002  -0.00000  -0.00049  -0.00049  -3.14053
   D11       -3.14111   0.00000  -0.00000   0.00020   0.00021  -3.14091
   D12        0.00028   0.00001  -0.00000   0.00066   0.00066   0.00094
   D13        0.00107  -0.00003  -0.00000  -0.00104  -0.00104   0.00004
   D14        3.13982   0.00003   0.00000   0.00086   0.00086   3.14068
   D15       -3.14032  -0.00004  -0.00000  -0.00149  -0.00148   3.14138
   D16       -0.00157   0.00002   0.00000   0.00041   0.00041  -0.00116
   D17       -0.00368   0.00005   0.00000   0.00171   0.00171  -0.00197
   D18        3.13876   0.00008   0.00000   0.00282   0.00282   3.14158
   D19        3.14073  -0.00001   0.00000  -0.00017  -0.00017   3.14057
   D20       -0.00000   0.00002   0.00000   0.00094   0.00093   0.00093
   D21        0.00010   0.00001  -0.00000   0.00041   0.00041   0.00050
   D22       -3.14114  -0.00001   0.00000  -0.00063  -0.00063   3.14141
   D23        3.13883   0.00007   0.00000   0.00231   0.00231   3.14114
   D24       -0.00241   0.00004   0.00000   0.00127   0.00127  -0.00114
   D25        0.00335  -0.00002  -0.00000  -0.00040  -0.00040   0.00295
   D26       -3.13459   0.00002  -0.00001   0.00207   0.00205  -3.13254
   D27       -3.13909  -0.00004  -0.00000  -0.00150  -0.00149  -3.14058
   D28        0.00616  -0.00001  -0.00000   0.00097   0.00096   0.00712
   D29       -3.10326  -0.00175  -0.00008  -0.19623  -0.19345   2.98647
   D30       -0.01211   0.00169   0.00005   0.18192   0.17913   0.16702
   D31        0.03455  -0.00179  -0.00008  -0.19882  -0.19606  -0.16150
   D32        3.12570   0.00165   0.00006   0.17932   0.17653  -2.98096
   D33       -3.08424  -0.00239   0.00064  -0.34092  -0.33881   2.86014
   D34        0.00553   0.00102   0.00078   0.04714   0.04645   0.05197
         Item               Value     Threshold  Converged?
 Maximum Force            0.007995     0.000450     NO 
 RMS     Force            0.001226     0.000300     NO 
 Maximum Displacement     0.547826     0.001800     NO 
 RMS     Displacement     0.087152     0.001200     NO 
 Predicted change in Energy=-1.359028D-03
 GradGradGradGradGradGradGradGradGradGradGradGradGradGradGradGradGradGrad

                          Input orientation:                          
 ---------------------------------------------------------------------
 Center     Atomic      Atomic             Coordinates (Angstroms)
 Number     Number       Type             X           Y           Z
 ---------------------------------------------------------------------
      1          6           0        0.038423   -1.816666   -0.085552
      2          6           0        1.249441   -1.108286   -0.045387
      3          6           0        1.229475    0.260014    0.002693
[...]
   yx        -0.336307D+02     -0.498356D+01     -0.554496D+01
   yy         0.898377D+02      0.133126D+02      0.148122D+02
   zx        -0.102776D+02     -0.152299D+01     -0.169455D+01
   zy         0.131578D+02      0.194979D+01      0.216943D+01
   zz         0.126775D+03      0.187862D+02      0.209024D+02

 ----------------------------------------------------------------------
 1\1\GINC-N02\Freq\RB3LYP\def2TZVP\C8H7O2(1+)\UNKNOWN\20-Jan-2025\0\\#N
  Geom=AllCheck Guess=TCheck SCRF=Check GenChk RB3LYP/def2TZVP Freq\\op
 t meta\\1,1\C,0.0420679537,-1.8170943747,-0.0289255389\C,1.252824205,-
 1.1052368096,-0.038411696\C,1.2310779833,0.2635487019,-0.018886814\C,-
 0.0275847402,0.9586870646,0.0111057307\C,-1.2468210858,0.2034135822,0.
 0201854095\C,-1.2067599738,-1.1686337498,0.0002779079\H,0.0623317965,-
 2.8996314631,-0.0444367915\H,2.1900525435,-1.6439891158,-0.0610479994\
 H,2.1494068788,0.837049475,-0.0256307724\H,-2.2052727742,0.7081683048,
 0.0427339885\C,-0.0693864392,2.3230989569,0.0309485305\H,0.837309431,2
 .9174264953,0.0248418152\H,-1.0120079866,2.8580180312,0.0538167826\C,-
 2.5138158466,-1.9152369576,0.0108499386\O,-3.574688642,-1.3579794611,0
 .0350444751\O,-2.3299492239,-3.2399629057,-0.0099552086\H,-3.197444219
 8,-3.6791981945,-0.0023678278\\Version=ES64L-G16RevA.03\State=1-A\HF=-
 459.4062412\RMSD=4.021e-09\RMSF=9.602e-06\ZeroPoint=0.1316418\Thermal=
 0.1400596\Dipole=1.935186,1.4497574,-0.0104415\DipoleDeriv=0.6244213,0
 .1097991,-0.0070353,-0.0194717,0.3789531,0.0043208,-0.0087721,0.002260
 7,0.0936415,-0.1638022,-0.4734599,-0.0052991,-0.5996996,-0.6121397,0.0
 022082,-0.007028,0.0001905,-0.0810071,-0.0000672,-0.3363022,-0.0042263
 ,0.3155859,0.6487924,0.0035862,0.0049065,0.0140974,0.030447,-0.0745761
 ,0.0032535,0.0014738,-0.04998,-1.1684652,-0.0157756,0.000727,-0.016751
 8,0.0136633,-0.0154171,0.2817836,0.0051204,-0.2293401,0.6562035,0.0120
 895,-0.0020526,0.003814,0.0580654,-0.3943323,0.2216857,0.0097487,0.392
 946,-0.6221675,-0.015291,0.012104,-0.0125361,0.018098,0.1392965,0.0070
 637,-0.0002973,0.004203,0.1357077,0.0002223,-0.0003854,0.0001707,0.114
 7417,0.0629843,0.0028746,0.0013574,0.0006016,0.0869583,-0.0008238,0.00
 13223,-0.0008761,0.1449087,0.0921498,0.0001669,0.0006198,-0.0239084,0.
 0617922,-0.0005791,0.0002749,-0.000966,0.1304614,0.1431774,0.0189071,-
 0.0000293,0.0113171,0.09954,-0.0005348,-0.00013,-0.0006346,0.124452,0.
 2219326,-0.0202063,-0.0024947,0.0347532,0.8670134,0.0104049,-0.0017173
 ,0.0115187,0.0849938,0.0570303,0.015635,0.0012841,0.0352904,0.1557391,
 -0.0000916,0.001542,0.0001528,0.1223036,0.0574475,-0.0267654,0.0006438
 ,-0.0382109,0.1560075,0.0011076,0.0004994,0.0008596,0.1214921,1.520175
 4,0.2579466,-0.015389,0.202684,1.7840525,0.0165853,-0.0162905,0.015732
 3,0.3143911,-1.0711616,0.0472868,0.0124508,-0.035523,-0.6954155,-0.004
 5102,0.0113937,-0.0058083,-0.3181244,-0.4671165,-0.2045135,-0.0005063,
 -0.1001035,-1.3719066,-0.0125805,0.0009912,-0.0108904,-0.3227718,0.267
 8578,0.0948447,0.0025787,0.0988559,0.4393346,-0.0003383,0.0026147,-0.0
 003334,0.3502438\Polar=106.9164745,9.8114547,135.9700998,-0.8259831,1.
 0881099,46.8645513\Quadrupole=-1.3990467,14.1417425,-12.7426958,7.9120
 149,-0.0747307,0.2506402\PG=C01 [X(C8H7O2)]\NImag=0\\0.63266119,0.0053
 4095,0.72395025,-0.00746709,0.00776905,0.16437423,-0.26848655,-0.10529
 827,0.00176086,0.70532564,-0.04177063,-0.17417285,-0.00083039,-0.06014
 390,0.71619576,0.00264919,0.00019099,-0.06717684,-0.01008995,0.0091798
 6,0.13077695,0.02005582,-0.03596917,-0.00075416,-0.12853897,-0.0067291
 3,0.00091814,0.66876546,-0.06283036,-0.02925746,0.00053868,0.03709993,
 -0.38856266,-0.00512140,0.06067377,0.73095676,-0.00113182,0.00010565,0
 .00451850,0.00153177,-0.00441248,-0.06577927,-0.00747691,0.00714256,0.
 15159385,-0.01409587,-0.00051354,0.00004426,0.01125312,0.02767940,0.00
 041481,-0.24088105,0.04894655,0.00339069,0.60788436,-0.00125935,-0.002
 44500,0.00013778,0.02428373,-0.03192316,-0.00101744,0.06130665,-0.1262
 0001,-0.00173666,-0.00330843,0.76066527,0.00003528,0.00012624,-0.01086
 381,0.00036344,-0.00107486,0.01285269,0.00356590,-0.00153400,-0.072738
 91,-0.00752589,0.00871422,0.14394336,0.01513030,0.03869026,0.00038591,
 -0.00763677,-0.01912370,-0.00021526,-0.04907575,0.00310560,0.00096940,
 -0.24061593,-0.06996993,0.00172882,0.68767721,0.06432327,-0.02379902,-
 0.00144453,-0.01577364,-0.03555303,-0.00018373,-0.00806055,0.03953064,
 0.00056641,-0.05862527,-0.13318755,0.00010102,-0.04712382,0.71427350,0
 .00074292,-0.00103174,0.00527928,-0.00016706,-0.00012981,-0.00429759,0
 .00081268,0.00038633,0.00837260,0.00188748,0.00028042,-0.07274926,-0.0
 0923485,0.00859574,0.15644804,-0.25948756,0.09399189,0.00439451,-0.047
 00289,-0.01496169,0.00067794,-0.00906991,0.01643368,0.00030106,0.01221
 820,-0.02075479,-0.00025821,-0.12392441,-0.01721333,0.00063401,0.62220
 946,0.03707740,-0.16754320,-0.00198076,0.00865404,0.05942610,0.0005800
 4,0.02006352,-0.03297884,-0.00072018,-0.02370214,-0.03405579,-0.000295
 43,0.02163716,-0.36917246,-0.00455794,-0.01887076,0.70670851,0.0035986
 7,-0.00289626,-0.06881428,0.00100982,0.00095786,0.00812407,0.00035158,
 -0.00066155,-0.00469077,-0.00029791,-0.00034115,0.01426175,0.00117446,
 -0.00393205,-0.06964537,-0.00803170,0.00824401,0.13948581,-0.06090551,
 0.00637950,0.00023726,0.00520897,-0.02719698,-0.00027970,-0.00477420,-
 0.00314340,0.00014234,-0.00047931,0.00010782,-0.00000720,-0.00566407,0
 .00264365,0.00022604,0.00425266,0.02770130,0.00049225,0.06067991,0.008
 22119,-0.34471005,-0.00424388,0.00182353,-0.00757614,-0.00029724,-0.00
 191561,-0.00057330,-0.00007282,-0.00000605,0.00156386,0.00003648,0.001
 72695,-0.00051561,-0.00012013,-0.00034048,-0.00843095,-0.00026314,-0.0
 0686020,0.36150318,0.00026528,-0.00421380,-0.05171571,0.00012671,0.000
 16877,0.01152746,0.00015902,-0.00005248,0.00681277,-0.00000922,0.00003
 400,-0.00102496,0.00021429,-0.00013429,0.00606183,0.00009733,-0.000715
 25,0.01071201,-0.00064038,0.00480513,0.02689004,-0.01946056,0.01330015
 ,0.00055655,-0.27466083,0.12415197,0.00549211,0.00598124,-0.00200266,-
 0.00005252,0.00102090,-0.00133975,0.00011597,0.00029487,-0.00073050,-0
 .00002442,-0.00196059,-0.00355476,0.00008008,0.00096606,0.00002587,-0.
 00006659,0.28734783,-0.01769993,0.01231089,0.00040775,0.12414571,-0.13
 050859,-0.00324621,0.02896200,-0.01231591,-0.00070120,-0.00186903,-0.0
 0430543,-0.00016158,-0.00061580,-0.00078143,0.00000725,-0.00332333,-0.
 00165942,-0.00005510,0.00031930,0.00076374,0.00005041,-0.13072223,0.13
 560704,0.00012163,-0.00009084,0.00353220,0.00549289,-0.00324686,-0.041
 63369,0.00038105,-0.00020250,0.00444655,0.00010854,-0.00016996,0.00938
 330,-0.00002293,0.00000872,-0.00058720,0.00008315,-0.00005181,0.006100
 32,-0.00006255,0.00005518,-0.00319707,-0.00601034,0.00361641,0.0278714
 5,-0.00029957,0.00121432,0.00016580,0.00732906,0.00348705,0.00008366,-
 0.26472241,-0.12782134,0.00179646,-0.01759533,-0.01468520,0.00012146,-
 0.00232034,0.00426555,0.00015462,0.00078443,-0.00052606,-0.00003635,0.
 00017447,0.00022170,-0.00002678,0.00065174,-0.00013673,-0.00008845,0.2
 7522934,0.00109309,-0.00591882,-0.00022590,-0.02759663,-0.01034475,0.0
 0016617,-0.12716925,-0.13937600,0.00067986,0.01455769,0.01056843,-0.00
 012454,0.00353963,-0.00192895,-0.00013414,0.00038652,-0.00032508,0.000
 00359,-0.00126812,-0.00031487,0.00003951,0.00009828,0.00107208,0.00007
 968,0.13530942,0.14426471,0.00016502,-0.00022754,0.00894650,-0.0003517
 3,-0.00033564,0.00950169,0.00180474,0.00069132,-0.04183116,0.00053117,
 0.00034526,0.00272090,0.00014441,-0.00014558,0.00356902,-0.00002360,0.
 00001835,-0.00101663,-0.00004770,0.00001569,-0.00168684,-0.00008523,0.
 00008360,-0.00472688,-0.00212623,-0.00051115,0.02534217,-0.00114548,-0
 .00115616,0.00012653,0.00074734,0.00098205,-0.00000786,-0.00121552,-0.
 00406011,0.00002162,-0.01582946,0.01169315,0.00046587,-0.27819786,0.12
 006119,0.00546928,0.00576397,0.00012300,0.00007685,0.00034180,-0.00018
 166,-0.00003496,-0.00002212,0.00006447,-0.00001213,-0.00056499,0.00056
 687,0.00004285,0.28998721,-0.00141431,-0.00624446,-0.00017296,-0.00017
 652,-0.00005841,0.00001030,-0.00345609,-0.00246780,-0.00003011,-0.0161
 0094,0.01060200,0.00036770,0.11793951,-0.12282314,-0.00301123,0.028718
 26,-0.00913559,-0.00073771,0.00149907,-0.00029599,-0.00000498,0.000055
 76,0.00006807,0.00001172,-0.00076108,0.00064599,-0.00000121,-0.1272324
 8,0.12654608,0.00012216,-0.00017756,0.00769963,-0.00002426,-0.00000826
 ,-0.00059076,0.00003002,-0.00001976,0.00364713,0.00007582,-0.00008231,
 0.00289355,0.00543959,-0.00304614,-0.04391614,0.00048077,-0.00027508,0
 .01042985,-0.00001116,0.00002219,-0.00166636,-0.00001221,0.00001155,-0
 .00082968,0.00002428,-0.00002261,0.00160168,-0.00603422,0.00345120,0.0
 2691707,-0.01260035,-0.00046344,0.00019205,-0.00246243,0.01151404,0.00
 026880,0.00268355,0.03162566,0.00043603,-0.11401573,0.00970749,0.00100
 460,0.00469064,-0.02930096,-0.00045775,-0.00166552,-0.01209671,-0.0000
 7044,-0.00006258,-0.00002536,-0.00001190,0.00038230,0.00157629,0.00001
 851,0.00094228,0.00087593,-0.00004226,0.00091482,-0.00095784,-0.000070
 61,0.66474987,-0.00001415,0.00270915,0.00004213,0.00585521,0.00370681,
 -0.00010254,0.01489265,-0.03368098,-0.00074330,0.00999372,-0.42843096,
 -0.00533429,-0.01332905,-0.03724797,-0.00033291,-0.00580206,0.00340133
 ,0.00007685,-0.00009583,-0.00056750,0.00000504,-0.00005398,-0.00056205
 ,-0.00000918,-0.00154819,0.00186401,0.00008587,0.00128307,0.00191246,0
 .00004387,-0.00243598,0.75704134,0.00019869,0.00004851,-0.00027438,0.0
 0019149,-0.00019164,0.00423510,0.00020328,-0.00101669,0.00220887,0.001
 00899,-0.00533371,-0.06029840,-0.00023602,-0.00008006,0.00180320,0.000
 01628,0.00018135,0.00449837,-0.00001304,0.00000337,-0.00078798,-0.0000
 0443,-0.00003557,0.00015451,-0.00007655,0.00004656,-0.00244339,-0.0000
 3902,0.00007961,-0.00263711,-0.00831469,0.00860096,0.15140793,0.000207
 68,-0.00015747,-0.00000087,0.00031381,0.00018785,0.00000696,0.00191035
 ,0.00072871,-0.00011400,0.00569089,0.00492006,0.00017152,-0.00033478,-
 0.00010317,0.00016512,-0.00018070,0.00078575,-0.00003265,-0.00000160,-
 0.00004531,0.00000217,-0.00000651,0.00000112,0.00000412,0.00016833,-0.
 00008246,0.00000403,0.00029879,0.00021218,0.00000564,-0.26424606,-0.13
 170422,0.00158793,0.26911019,-0.00061174,0.00010463,0.00000716,0.00077
 408,0.00088818,-0.00000853,-0.00125445,0.00089384,0.00011575,-0.027017
 38,-0.01014899,0.00011944,0.00185064,-0.00475885,-0.00023918,-0.001639
 37,-0.00029557,0.00006346,0.00004729,-0.00002427,-0.00000349,0.0000105
 9,0.00001118,-0.00000356,0.00103325,-0.00027413,-0.00002733,-0.0001231
 4,-0.00000412,-0.00000468,-0.12538583,-0.14259873,0.00068688,0.1395716
 5,0.14504279,-0.00000721,0.00000010,0.00029354,0.00001483,0.00000084,0
 .00058658,-0.00014259,0.00008374,-0.00582792,-0.00027723,-0.00039183,0
 .01212146,0.00019435,-0.00020578,0.01004966,-0.00006675,0.00002360,-0.
 00290609,0.00000346,-0.00000198,0.00017165,0.00000427,-0.00000332,0.00
 024892,0.00001979,-0.00000947,0.00048414,0.00000086,-0.00001005,0.0004
 6557,0.00166903,0.00078348,-0.04917757,-0.00195353,-0.00052700,0.02420
 972,0.00020533,0.00019418,0.00000515,-0.00027042,-0.00081678,-0.000048
 79,-0.00017995,0.00027002,0.00016746,0.00414920,-0.00413784,0.00006506
 ,0.00197505,-0.00061672,-0.00013674,0.00032893,-0.00031918,0.00000134,
 0.00001471,0.00004136,0.00000452,0.00002040,-0.00003166,-0.00001402,0.
 00028825,-0.00019520,-0.00000195,0.00023659,0.00002855,0.00000424,-0.2
 8039100,0.12336794,0.00549708,-0.01291878,0.01263268,0.00054989,0.2864
 9625,0.00057215,0.00017495,-0.00001175,0.00174111,-0.00037069,0.000003
 33,-0.00185152,-0.00464695,-0.00017589,0.02807371,-0.00907847,-0.00074
 775,0.00133723,0.00087098,0.00007499,-0.00073566,0.00080939,0.00001341
 ,-0.00005866,-0.00001268,-0.00000289,-0.00009642,-0.00039660,0.0000075
 7,0.00017672,-0.00001530,-0.00000785,-0.00102684,-0.00034731,0.0000048
 9,0.11672330,-0.12652493,-0.00299370,-0.01433932,0.01161989,0.00025456
 ,-0.13048822,0.12787134,0.00001019,-0.00000532,0.00035242,-0.00001230,
 0.00004392,-0.00257053,0.00013547,-0.00020872,0.00990805,0.00051732,-0
 .00022452,0.01170016,-0.00010805,0.00010655,-0.00592525,-0.00000435,0.
 00000647,0.00068160,0.00000310,-0.00000446,0.00025893,-0.00001489,0.00
 000634,-0.00081710,0.00000332,-0.00000179,0.00033524,-0.00001064,-0.00
 001228,0.00047971,0.00541141,-0.00310522,-0.04890492,0.00016408,-0.000
 18050,0.00996724,-0.00609626,0.00358237,0.02436650,-0.02552226,-0.0065
 8668,0.00034881,0.00176604,0.00424326,0.00013860,-0.00013673,-0.000497
 48,-0.00001740,0.00005911,0.00944349,0.00029308,0.00538804,-0.02272235
 ,-0.00033883,-0.14337867,-0.03037134,0.00055214,0.00095656,0.00009377,
 -0.00006319,0.00005537,-0.00010234,0.00000152,-0.00025849,0.00012298,-
 0.00001013,0.00090120,0.00390349,-0.00003733,0.00283844,-0.00241164,-0
 .00007586,-0.00020879,0.00019512,-0.00000787,0.00035451,-0.00015480,-0
 .00000304,0.88913125,0.00495793,0.02326898,0.00021446,0.00715181,-0.00
 058246,-0.00021854,0.00234365,-0.00200215,-0.00005469,0.00191830,-0.00
 458900,-0.00023484,-0.03123197,-0.01771117,0.00019849,-0.04273411,-0.1
 2601637,0.00008603,0.00352252,-0.00044275,-0.00001872,0.00131091,0.001
 15441,-0.00000821,-0.00014084,-0.00027903,0.00001242,-0.00137619,-0.00
 182075,0.00006241,-0.00121093,-0.00136579,-0.00000378,0.00004424,-0.00
 038871,0.00000608,-0.00005812,-0.00025846,-0.00000659,-0.17418047,0.68
 982467,0.00051530,0.00040409,0.00206692,0.00017993,-0.00017097,0.00669
 018,0.00002086,-0.00000930,-0.00080124,0.00018681,-0.00035346,0.009954
 76,-0.00046099,0.00005324,0.00411090,0.00038416,-0.00011347,-0.0831421
 3,-0.00001714,0.00003549,-0.00307975,0.00002138,0.00001461,0.00023924,
 -0.00001388,0.00000828,-0.00099661,-0.00010927,-0.00001987,-0.00471880
 ,-0.00005764,0.00001533,0.00028798,-0.00001024,0.00000393,-0.00088214,
 -0.00000188,-0.00000503,0.00027927,-0.01313304,0.00932171,0.20465467,-
 0.00284463,-0.00819767,-0.00004023,-0.00355617,-0.00044161,0.00002388,
 -0.00064718,0.00151922,0.00003358,0.00044297,-0.00281550,-0.00006096,-
 0.00130143,0.00811585,0.00013449,-0.06166248,0.01081783,0.00144149,0.0
 0069922,-0.00004307,-0.00000139,-0.00062785,-0.00057672,-0.00000125,0.
 00014199,-0.00011791,-0.00000154,-0.00164196,-0.00145718,0.00000089,-0
 .00085321,0.00154556,0.00003675,0.00011708,0.00003422,-0.00000171,-0.0
 0022006,0.00008115,0.00000380,-0.61505153,0.24689249,0.01181716,0.6969
 9199,0.00031025,-0.00344830,-0.00007942,-0.00118411,-0.00016384,0.0000
 4324,-0.00131342,0.00046354,0.00002599,-0.00035885,0.00252438,0.000054
 41,-0.00215397,-0.00671461,-0.00006294,-0.00418987,0.01994658,0.000058
 87,-0.00120320,-0.00001616,0.00000887,-0.00019041,-0.00021038,0.000003
 12,-0.00008851,0.00019921,0.00000197,-0.00078165,0.00212597,0.00004612
 ,0.00051037,0.00006461,-0.00000832,-0.00004051,0.00006030,0.00000170,0
 .00008305,0.00013919,0.00000131,0.24787623,-0.23646659,-0.00607528,-0.
 31488678,0.27465745,0.00007772,0.00005486,0.00183744,0.00000905,0.0000
 3160,-0.00186310,-0.00000536,-0.00001918,0.00012838,-0.00002746,0.0000
 9247,-0.00092985,-0.00000727,-0.00022056,0.00006184,0.00123891,-0.0001
 7856,0.02063612,-0.00001485,-0.00000992,0.00075655,0.00000384,0.000008
 95,-0.00020712,-0.00000089,0.00000230,0.00016428,0.00001166,0.00005714
 ,-0.00028680,0.00002150,-0.00002439,0.00005597,-0.00000255,0.00000040,
 -0.00000803,0.00000394,0.00000129,-0.00004473,0.01183197,-0.00606144,-
 0.07561037,-0.01471145,0.00823278,0.03209617,-0.00335584,-0.00090539,0
 .00004257,0.00053958,-0.00114642,-0.00003146,-0.00020208,0.00003020,0.
 00000340,0.00070803,-0.00351293,-0.00006929,-0.00629291,0.00088918,0.0
 0012962,0.00196694,-0.03927280,-0.00040919,-0.00164823,-0.00258271,-0.
 00000752,0.00001922,0.00000862,-0.00000054,0.00005640,-0.00011161,-0.0
 0000164,-0.00059721,-0.00071651,0.00000347,-0.00097874,0.00062516,0.00
 002330,0.00008626,-0.00011203,-0.00000185,-0.00010044,0.00007056,0.000
 00195,-0.12707673,-0.01119719,0.00086244,-0.00489041,0.07311979,0.0015
 1695,0.54106113,0.00270459,-0.00501118,-0.00011177,-0.00141242,-0.0010
 5993,0.00001325,-0.00086336,0.00038054,0.00001944,0.00008117,-0.001508
 71,-0.00001814,-0.00476282,0.00000058,0.00006474,-0.01116742,-0.034993
 71,-0.00042983,-0.00180689,-0.00076034,0.00001784,-0.00026838,-0.00027
 441,0.00000090,0.00002419,0.00013227,0.00000088,0.00125465,0.00151912,
 -0.00000016,-0.00056183,0.00059306,0.00001873,0.00003051,-0.00006819,-
 0.00000215,0.00003806,0.00020259,0.00000260,0.02207860,-0.28848575,-0.
 00339948,0.05630069,-0.06205855,-0.00211247,0.12616201,0.51279827,0.00
 009041,-0.00005534,-0.00001255,-0.00003399,0.00000963,-0.00036534,-0.0
 0000855,0.00000493,-0.00001522,-0.00001688,0.00004132,-0.00041837,0.00
 004975,-0.00002807,0.00092794,-0.00002880,0.00001579,0.00971561,0.0000
 0270,0.00003085,0.00003483,-0.00000447,-0.00000361,-0.00002547,0.00000
 014,0.00000294,0.00004526,0.00002958,0.00002857,0.00021758,0.00000642,
 -0.00000078,-0.00009411,0.00000005,-0.00000009,0.00006348,0.00000163,0
 .00000203,-0.00003063,0.00131266,-0.00288288,-0.06267926,0.00128885,-0
 .00237734,0.02871676,-0.00611544,0.00442436,0.04077178,-0.00005612,0.0
 0013655,0.00000210,0.00013146,0.00008522,-0.00000107,0.00004732,-0.000
 07798,-0.00000115,0.00008590,0.00032133,-0.00000944,0.00020813,-0.0000
 2840,0.00000341,0.00080813,0.00185376,0.00009957,0.00024115,-0.0001539
 2,-0.00000739,-0.00000146,0.00000027,0.00000081,-0.00000517,-0.0000092
 2,-0.00000021,0.00002288,-0.00008388,0.00000291,0.00007372,-0.00016821
 ,-0.00000417,-0.00000616,-0.00000556,0.00000226,0.00001142,-0.00002452
 ,-0.00000109,0.01018265,-0.00601203,-0.00018397,-0.00509634,0.00449161
 ,0.00005430,-0.39929497,-0.18783135,0.00342593,0.39264747,0.00099965,0
 .00003149,-0.00001564,0.00005633,0.00065967,0.00000845,0.00034033,-0.0
 0016326,-0.00000834,0.00025111,-0.00005088,0.00000592,-0.00151595,-0.0
 0048190,0.00001206,0.00220253,-0.00568492,-0.00018729,-0.00058716,0.00
 040984,0.00001632,0.00000557,0.00002680,-0.00000036,-0.00002426,0.0000
 3022,0.00000094,-0.00009022,-0.00022216,-0.00000566,-0.00009419,-0.000
 31386,-0.00000252,-0.00000962,-0.00005926,-0.00000251,0.00000789,-0.00
 003693,-0.00000016,-0.05092983,-0.03383909,0.00029020,0.00322944,0.008
 89720,0.00014472,-0.14134793,-0.12140567,0.00078769,0.18750631,0.15220
 271,0.00001368,-0.00000110,-0.00004309,-0.00000150,0.00000845,-0.00001
 761,0.00000483,-0.00000197,0.00004779,-0.00001129,0.00000560,-0.000808
 38,-0.00001558,-0.00001089,0.00043650,0.00010532,-0.00018112,0.0055697
 5,-0.00001343,0.00000918,-0.00006741,0.00000088,-0.00000029,0.00004774
 ,-0.00000040,0.00000071,-0.00000937,0.00000301,-0.00000584,0.00029387,
 -0.00000307,-0.00000094,-0.00003409,0.00000222,-0.00000266,0.00013979,
 -0.00000068,0.00000041,-0.00003594,-0.00079208,-0.00041191,0.00362639,
 0.00003764,0.00012493,-0.00550351,0.00405324,0.00151126,-0.01685230,-0
 .00338278,-0.00104383,0.01320986\\0.00000490,-0.00000556,-0.00000375,-
 0.00000238,-0.00001027,0.00000346,-0.00000229,0.00001004,0.00000328,0.
 00000668,0.00000047,-0.00000054,-0.00000971,-0.00001904,0.00000631,-0.
 00001013,0.00002048,-0.00000966,-0.00000036,-0.00000193,-0.00000056,0.
 00000315,0.00000113,-0.00000053,0.00000191,-0.00000271,0.00000021,0.00
 000108,0.00000324,0.00000234,-0.00000084,-0.00000066,-0.00002849,-0.00
 000081,0.00000330,0.00001062,0.00000164,0.00000480,0.00001048,0.000009
 24,-0.00002134,0.00001526,-0.00001139,0.00003170,-0.00000697,0.0000057
 9,-0.00000905,0.00000174,0.00000352,-0.00000461,-0.00000321\\\@


 TO BEHOLD HARMS OF OUR OWN HANDS DOING,
 WHERE NONE BESIDE US WROUGHT,
 CAUSES SHARP RUING...

                                         SOPHOCLES
 Job cpu time:       0 days  0 hours 27 minutes 41.7 seconds.
 Elapsed time:       0 days  0 hours 27 minutes 44.5 seconds.
 File lengths (MBytes):  RWF=    182 Int=      0 D2E=      0 Chk=     11 Scr=      1
 Normal termination of Gaussian 16 at Mon Jan 20 15:48:53 2025.
