 Entering Gaussian System, Link 0=g16
 Initial command:
 /sw/cluster/pub/apps//g16/l1.exe "/data/mmaximo/27759/Gau-1917133.inp" -scrdir="/data/mmaximo/27759/"
 Entering Link 1 = /sw/cluster/pub/apps//g16/l1.exe PID=   1917135.
  
 Copyright (c) 1988,1990,1992,1993,1995,1998,2003,2009,2016,
            Gaussian, Inc.  All Rights Reserved.
  
 This is part of the Gaussian(R) 16 program.  It is based on
 the Gaussian(R) 09 system (copyright 2009, Gaussian, Inc.),
 the Gaussian(R) 03 system (copyright 2003, Gaussian, Inc.),
 the Gaussian(R) 98 system (copyright 1998, Gaussian, Inc.),
 the Gaussian(R) 94 system (copyright 1995, Gaussian, Inc.),
 the Gaussian 92(TM) system (copyright 1992, Gaussian, Inc.),
 the Gaussian 90(TM) system (copyright 1990, Gaussian, Inc.),
 the Gaussian 88(TM) system (copyright 1988, Gaussian, Inc.),
 the Gaussian 86(TM) system (copyright 1986, Carnegie Mellon
 University), and the Gaussian 82(TM) system (copyright 1983,
 Carnegie Mellon University). Gaussian is a federally registered
 trademark of Gaussian, Inc.
  
 This software contains proprietary and confidential information,
 including trade secrets, belonging to Gaussian, Inc.
  
 This software is provided under written license and may be
 used, copied, transmitted, or stored only in accord with that
 written license.
  
 The following legend is applicable only to US Government
 contracts under FAR:
  
                    RESTRICTED RIGHTS LEGEND
  
 Use, reproduction and disclosure by the US Government is
 subject to restrictions as set forth in subparagraphs (a)
 and (c) of the Commercial Computer Software - Restricted
 Rights clause in FAR 52.227-19.
  
 Gaussian, Inc.
 340 Quinnipiac St., Bldg. 40, Wallingford CT 06492
  
  
 ---------------------------------------------------------------
 Warning -- This program may not be used in any manner that
 competes with the business of Gaussian, Inc. or will provide
 assistance to any competitor of Gaussian, Inc.  The licensee
 of this program is prohibited from giving any competitor of
 Gaussian, Inc. access to this program.  By using this program,
 the user acknowledges that Gaussian, Inc. is engaged in the
 business of creating and licensing software in the field of
 computational chemistry and represents and warrants to the
 licensee that it is not a competitor of Gaussian, Inc. and that
 it will not use this program in any manner prohibited above.
 ---------------------------------------------------------------
  

 Cite this work as:
 Gaussian 16, Revision A.03,
 M. J. Frisch, G. W. Trucks, H. B. Schlegel, G. E. Scuseria, 
 M. A. Robb, J. R. Cheeseman, G. Scalmani, V. Barone, 
 G. A. Petersson, H. Nakatsuji, X. Li, M. Caricato, A. V. Marenich, 
 J. Bloino, B. G. Janesko, R. Gomperts, B. Mennucci, H. P. Hratchian, 
 J. V. Ortiz, A. F. Izmaylov, J. L. Sonnenberg, D. Williams-Young, 
 F. Ding, F. Lipparini, F. Egidi, J. Goings, B. Peng, A. Petrone, 
 T. Henderson, D. Ranasinghe, V. G. Zakrzewski, J. Gao, N. Rega, 
 G. Zheng, W. Liang, M. Hada, M. Ehara, K. Toyota, R. Fukuda, 
 J. Hasegawa, M. Ishida, T. Nakajima, Y. Honda, O. Kitao, H. Nakai, 
 T. Vreven, K. Throssell, J. A. Montgomery, Jr., J. E. Peralta, 
 F. Ogliaro, M. J. Bearpark, J. J. Heyd, E. N. Brothers, K. N. Kudin, 
 V. N. Staroverov, T. A. Keith, R. Kobayashi, J. Normand, 
 K. Raghavachari, A. P. Rendell, J. C. Burant, S. S. Iyengar, 
 J. Tomasi, M. Cossi, J. M. Millam, M. Klene, C. Adamo, R. Cammi, 
 J. W. Ochterski, R. L. Martin, K. Morokuma, O. Farkas, 
 J. B. Foresman, and D. J. Fox, Gaussian, Inc., Wallingford CT, 2016.
 
 ******************************************
 Gaussian 16:  ES64L-G16RevA.03 25-Dec-2016
                14-Jan-2025 
 ******************************************
 %chk=C6H4-NH-2.chk
 ----------------------------------------
 #P B3LYP/def2tzvp nosymm Density=Current
 ----------------------------------------
 1/30=1,38=1,172=1/1;
 2/12=2,15=1,17=6,18=5,40=1/2;
 3/5=44,7=101,11=2,25=1,30=1,74=-5/1,2,3;
 4//1;
 5/5=2,38=5/2;
 6/7=2,8=2,9=2,10=2,22=-1,28=1/1;
 99/5=1,9=1/99;
 Leave Link    1 at Tue Jan 14 14:11:47 2025, MaxMem=           0 cpu:               0.0 elap:               0.0
 (Enter /sw/cluster/pub/apps//g16/l101.exe)
 ------------
 Single-Point
 ------------
 Symbolic Z-matrix:
 Charge =  0 Multiplicity = 1
 C                     1.22551  -0.75565   0. 
 C                     1.22551   0.71083   0. 
 C                     0.08607   1.41389   0. 
 C                    -1.22551   0.75565   0. 
 C                    -1.22551  -0.71083   0. 
 C                    -0.08607  -1.41389   0. 
 N                     2.35555  -1.36523   0. 
 H                     2.19683   1.18866   0. 
 H                     0.09919   2.49836   0. 
 N                    -2.35555   1.36523   0. 
 H                    -2.19683  -1.18866   0. 
 H                    -0.09919  -2.49836   0. 
 H                    -2.22336   2.37838   0. 
 H                     2.22336  -2.37838   0. 
 
 ITRead=  0  0  0  0  0  0  0  0  0  0  0  0  0  0
 MicOpt= -1 -1 -1 -1 -1 -1 -1 -1 -1 -1 -1 -1 -1 -1
 NAtoms=     14 NQM=       14 NQMF=       0 NMMI=      0 NMMIF=      0
                NMic=       0 NMicF=      0.
                    Isotopes and Nuclear Properties:
 (Nuclear quadrupole moments (NQMom) in fm**2, nuclear magnetic moments (NMagM)
  in nuclear magnetons)

  Atom         1           2           3           4           5           6           7           8           9          10
 IAtWgt=          12          12          12          12          12          12          14           1           1          14
 AtmWgt=  12.0000000  12.0000000  12.0000000  12.0000000  12.0000000  12.0000000  14.0030740   1.0078250   1.0078250  14.0030740
 NucSpn=           0           0           0           0           0           0           2           1           1           2
 AtZEff=  -0.0000000  -0.0000000  -0.0000000  -0.0000000  -0.0000000  -0.0000000  -0.0000000  -0.0000000  -0.0000000  -0.0000000
 NQMom=    0.0000000   0.0000000   0.0000000   0.0000000   0.0000000   0.0000000   2.0440000   0.0000000   0.0000000   2.0440000
 NMagM=    0.0000000   0.0000000   0.0000000   0.0000000   0.0000000   0.0000000   0.4037610   2.7928460   2.7928460   0.4037610
 AtZNuc=   6.0000000   6.0000000   6.0000000   6.0000000   6.0000000   6.0000000   7.0000000   1.0000000   1.0000000   7.0000000

  Atom        11          12          13          14
 IAtWgt=           1           1           1           1
 AtmWgt=   1.0078250   1.0078250   1.0078250   1.0078250
 NucSpn=           1           1           1           1
 AtZEff=  -0.0000000  -0.0000000  -0.0000000  -0.0000000
 NQMom=    0.0000000   0.0000000   0.0000000   0.0000000
 NMagM=    2.7928460   2.7928460   2.7928460   2.7928460
 AtZNuc=   1.0000000   1.0000000   1.0000000   1.0000000
 Leave Link  101 at Tue Jan 14 14:11:47 2025, MaxMem=   104857600 cpu:               0.0 elap:               0.0
 (Enter /sw/cluster/pub/apps//g16/l202.exe)
                          Input orientation:                          
 ---------------------------------------------------------------------
 Center     Atomic      Atomic             Coordinates (Angstroms)
 Number     Number       Type             X           Y           Z
 ---------------------------------------------------------------------
      1          6           0        1.225505   -0.755652    0.000000
      2          6           0        1.225505    0.710834    0.000000
      3          6           0        0.086072    1.413890    0.000000
      4          6           0       -1.225505    0.755652    0.000000
      5          6           0       -1.225505   -0.710834    0.000000
      6          6           0       -0.086072   -1.413890    0.000000
      7          7           0        2.355555   -1.365230    0.000000
      8          1           0        2.196829    1.188664    0.000000
      9          1           0        0.099187    2.498363    0.000000
     10          7           0       -2.355555    1.365230    0.000000
     11          1           0       -2.196829   -1.188664    0.000000
     12          1           0       -0.099187   -2.498363    0.000000
     13          1           0       -2.223361    2.378383    0.000000
     14          1           0        2.223361   -2.378383    0.000000
 ---------------------------------------------------------------------
                    Distance matrix (angstroms):
                    1          2          3          4          5
     1  C    0.000000
     2  C    1.466487   0.000000
     3  C    2.450555   1.338878   0.000000
     4  C    2.879496   2.451420   1.467485   0.000000
     5  C    2.451420   2.833478   2.496936   1.466487   0.000000
     6  C    1.467485   2.496936   2.833014   2.450555   1.338878
     7  N    1.283977   2.363696   3.588044   4.161987   3.640361
     8  H    2.173439   1.082493   2.122739   3.449619   3.914137
     9  H    3.443430   2.112783   1.084553   2.189029   3.471852
    10  N    4.161987   3.640361   2.442112   1.283977   2.363696
    11  H    3.449619   3.914137   3.461925   2.173439   1.082493
    12  H    2.189029   3.471852   3.916636   3.443430   2.112783
    13  H    4.660135   3.830848   2.502744   1.904986   3.246380
    14  H    1.904986   3.246380   4.353083   4.660135   3.830848
                    6          7          8          9         10
     6  C    0.000000
     7  N    2.442112   0.000000
     8  H    3.461925   2.558822   0.000000
     9  H    3.916636   4.474209   2.472936   0.000000
    10  N    3.588044   5.445179   4.555807   2.703654   0.000000
    11  H    2.122739   4.555807   4.995590   4.343484   2.558822
    12  H    1.084553   2.703654   4.343484   5.000662   4.474209
    13  H    4.353083   5.914483   4.577501   2.325645   1.021740
    14  H    2.502744   1.021740   3.567146   5.319282   5.914483
                   11         12         13         14
    11  H    0.000000
    12  H    2.472936   0.000000
    13  H    3.567146   5.319282   0.000000
    14  H    4.577501   2.325645   6.511541   0.000000
 Symmetry turned off by external request.
 Stoichiometry    C6H6N2
 Framework group  C2H[SGH(C6H6N2)]
 Deg. of freedom    13
 Full point group                 C2H     NOp   4
 Rotational constants (GHZ):           5.2938301           1.6583463           1.2627706
 Leave Link  202 at Tue Jan 14 14:11:47 2025, MaxMem=   104857600 cpu:               0.0 elap:               0.0
 (Enter /sw/cluster/pub/apps//g16/l301.exe)
 Standard basis: def2TZVP (5D, 7F)
 Ernie: Thresh=  0.10000D-02 Tol=  0.10000D-05 Strict=F.
   284 basis functions,   456 primitive gaussians,   324 cartesian basis functions
    28 alpha electrons       28 beta electrons
       nuclear repulsion energy       324.4889048497 Hartrees.
 IExCor=  402 DFT=T Ex+Corr=B3LYP ExCW=0 ScaHFX=  0.200000
 ScaDFX=  0.800000  0.720000  1.000000  0.810000 ScalE2=  1.000000  1.000000
 IRadAn=      5 IRanWt=     -1 IRanGd=            0 ICorTp=0 IEmpDi=  4
 NAtoms=   14 NActive=   14 NUniq=   14 SFac= 1.00D+00 NAtFMM=   60 NAOKFM=F Big=F
 Integral buffers will be    131072 words long.
 Raffenetti 2 integral format.
 Two-electron integral symmetry is turned off.
 Leave Link  301 at Tue Jan 14 14:11:47 2025, MaxMem=   104857600 cpu:               0.0 elap:               0.0
 (Enter /sw/cluster/pub/apps//g16/l302.exe)
 NPDir=0 NMtPBC=     1 NCelOv=     1 NCel=       1 NClECP=     1 NCelD=      1
         NCelK=      1 NCelE2=     1 NClLst=     1 CellRange=     0.0.
 One-electron integrals computed using PRISM.
   1 Symmetry operations used in ECPInt.
 ECPInt:  NShTT=    6328 NPrTT=   19500 LenC2=    6190 LenP2D=   15422.
 LDataN:  DoStor=T MaxTD1= 6 Len=  172
 NBasis=   284 RedAO= T EigKep=  1.22D-05  NBF=   284
 NBsUse=   284 1.00D-06 EigRej= -1.00D+00 NBFU=   284
 Precomputing XC quadrature grid using
 IXCGrd= 4 IRadAn=           5 IRanWt=          -1 IRanGd=           0 AccXCQ= 0.00D+00.
 Generated NRdTot=       0 NPtTot=           0 NUsed=           0 NTot=          32
 NSgBfM=   322   322   322   322   322 MxSgAt=    14 MxSgA2=    14.
 Leave Link  302 at Tue Jan 14 14:11:47 2025, MaxMem=   104857600 cpu:               0.2 elap:               0.2
 (Enter /sw/cluster/pub/apps//g16/l303.exe)
 DipDrv:  MaxL=1.
 Leave Link  303 at Tue Jan 14 14:11:47 2025, MaxMem=   104857600 cpu:               0.0 elap:               0.0
 (Enter /sw/cluster/pub/apps//g16/l401.exe)
 ExpMin= 9.52D-02 ExpMax= 1.97D+04 ExpMxC= 6.73D+02 IAcc=3 IRadAn=         5 AccDes= 0.00D+00
 Harris functional with IExCor=  402 and IRadAn=       5 diagonalized for initial guess.
 HarFok:  IExCor=  402 AccDes= 0.00D+00 IRadAn=         5 IDoV= 1 UseB2=F ITyADJ=14
 ICtDFT=  3500011 ScaDFX=  1.000000  1.000000  1.000000  1.000000
 FoFCou: FMM=F IPFlag=           0 FMFlag=      100000 FMFlg1=           0
         NFxFlg=           0 DoJE=T BraDBF=F KetDBF=T FulRan=T
         wScrn=  0.000000 ICntrl=       500 IOpCl=  0 I1Cent=   200000004 NGrid=           0
         NMat0=    1 NMatS0=      1 NMatT0=    0 NMatD0=    1 NMtDS0=    0 NMtDT0=    0
 Symmetry not used in FoFCou.
 Harris En= -341.851335771159    
 JPrj=0 DoOrth=F DoCkMO=F.
 Leave Link  401 at Tue Jan 14 14:11:49 2025, MaxMem=   104857600 cpu:               2.2 elap:               2.2
 (Enter /sw/cluster/pub/apps//g16/l502.exe)
 Two-electron integral symmetry not used.
 Closed shell SCF:
 Using DIIS extrapolation, IDIIS=  1040.
 NGot=   104857600 LenX=   104643506 LenY=   104538089
 Requested convergence on RMS density matrix=1.00D-08 within 128 cycles.
 Requested convergence on MAX density matrix=1.00D-06.
 Requested convergence on             energy=1.00D-06.
 No special actions if energy rises.
 Fock matrices will be formed incrementally for  20 cycles.
 Integral accuracy reduced to 1.0D-05 until final iterations.

 Cycle   1  Pass 0  IDiag  1:
 FoFJK:  IHMeth= 1 ICntrl=       0 DoSepK=F KAlg= 0 I1Cent=           0 FoldK=F
 IRaf= 960000000 NMat=       1 IRICut=       1 DoRegI=T DoRafI=F ISym2E= 0 IDoP0=0 IntGTp=1.
 FoFCou: FMM=F IPFlag=           0 FMFlag=      100000 FMFlg1=           0
         NFxFlg=           0 DoJE=F BraDBF=F KetDBF=F FulRan=T
         wScrn=  0.000000 ICntrl=         0 IOpCl=  0 I1Cent=           0 NGrid=           0
         NMat0=    1 NMatS0=      1 NMatT0=    0 NMatD0=    1 NMtDS0=    0 NMtDT0=    0
 Symmetry not used in FoFCou.
 E= -341.646906158298    
 DIIS: error= 3.25D-02 at cycle   1 NSaved=   1.
 NSaved= 1 IEnMin= 1 EnMin= -341.646906158298     IErMin= 1 ErrMin= 3.25D-02
 ErrMax= 3.25D-02  0.00D+00 EMaxC= 1.00D-01 BMatC= 2.15D-01 BMatP= 2.15D-01
 IDIUse=3 WtCom= 6.75D-01 WtEn= 3.25D-01
 Coeff-Com:  0.100D+01
 Coeff-En:   0.100D+01
 Coeff:      0.100D+01
 Gap=     0.149 Goal=   None    Shift=    0.000
 GapD=    0.149 DampG=1.000 DampE=0.500 DampFc=0.5000 IDamp=-1.
 Damping current iteration by 5.00D-01
 RMSDP=1.06D-02 MaxDP=6.48D-01              OVMax= 1.61D-01

 Cycle   2  Pass 0  IDiag  1:
 RMSU=  5.31D-03    CP:  1.02D+00
 E= -341.730237891059     Delta-E=       -0.083331732761 Rises=F Damp=T
 DIIS: error= 6.98D-03 at cycle   2 NSaved=   2.
 NSaved= 2 IEnMin= 2 EnMin= -341.730237891059     IErMin= 2 ErrMin= 6.98D-03
 ErrMax= 6.98D-03  0.00D+00 EMaxC= 1.00D-01 BMatC= 1.43D-02 BMatP= 2.15D-01
 IDIUse=3 WtCom= 9.30D-01 WtEn= 6.98D-02
 Coeff-Com:  0.523D-01 0.948D+00
 Coeff-En:   0.107D+00 0.893D+00
 Coeff:      0.562D-01 0.944D+00
 Gap=     0.158 Goal=   None    Shift=    0.000
 RMSDP=3.26D-03 MaxDP=1.98D-01 DE=-8.33D-02 OVMax= 1.40D-01

 Cycle   3  Pass 0  IDiag  1:
 RMSU=  1.47D-03    CP:  9.89D-01  4.55D-01
 E= -341.822117346779     Delta-E=       -0.091879455720 Rises=F Damp=F
 DIIS: error= 1.44D-02 at cycle   3 NSaved=   3.
 NSaved= 3 IEnMin= 3 EnMin= -341.822117346779     IErMin= 2 ErrMin= 6.98D-03
 ErrMax= 1.44D-02  0.00D+00 EMaxC= 1.00D-01 BMatC= 1.59D-02 BMatP= 1.43D-02
 IDIUse=2 WtCom= 0.00D+00 WtEn= 1.00D+00
 Coeff-En:   0.000D+00 0.000D+00 0.100D+01
 Coeff:      0.000D+00 0.000D+00 0.100D+01
 Gap=     0.154 Goal=   None    Shift=    0.000
 RMSDP=2.39D-03 MaxDP=1.55D-01 DE=-9.19D-02 OVMax= 1.50D-01

 Cycle   4  Pass 0  IDiag  1:
 RMSU=  9.64D-04    CP:  1.01D+00  8.62D-01  8.51D-01
 E= -341.763507350129     Delta-E=        0.058609996649 Rises=F Damp=F
 DIIS: error= 3.50D-02 at cycle   4 NSaved=   4.
 NSaved= 4 IEnMin= 3 EnMin= -341.822117346779     IErMin= 2 ErrMin= 6.98D-03
 ErrMax= 3.50D-02  0.00D+00 EMaxC= 1.00D-01 BMatC= 8.02D-02 BMatP= 1.43D-02
 IDIUse=2 WtCom= 0.00D+00 WtEn= 1.00D+00
 Coeff-En:   0.000D+00 0.000D+00 0.781D+00 0.219D+00
 Coeff:      0.000D+00 0.000D+00 0.781D+00 0.219D+00
 Gap=     0.158 Goal=   None    Shift=    0.000
 RMSDP=1.41D-03 MaxDP=9.37D-02 DE= 5.86D-02 OVMax= 7.51D-02

 Cycle   5  Pass 0  IDiag  1:
 RMSU=  8.79D-05    CP:  9.97D-01  6.16D-01  9.64D-01  4.84D-01
 E= -341.830658768595     Delta-E=       -0.067151418466 Rises=F Damp=F
 DIIS: error= 9.35D-03 at cycle   5 NSaved=   5.
 NSaved= 5 IEnMin= 5 EnMin= -341.830658768595     IErMin= 2 ErrMin= 6.98D-03
 ErrMax= 9.35D-03  0.00D+00 EMaxC= 1.00D-01 BMatC= 6.22D-03 BMatP= 1.43D-02
 IDIUse=3 WtCom= 9.07D-01 WtEn= 9.35D-02
 Coeff-Com:  0.416D-02-0.686D-03 0.274D+00-0.107D+00 0.829D+00
 Coeff-En:   0.000D+00 0.000D+00 0.333D+00 0.000D+00 0.667D+00
 Coeff:      0.378D-02-0.622D-03 0.280D+00-0.970D-01 0.814D+00
 Gap=     0.160 Goal=   None    Shift=    0.000
 RMSDP=4.84D-04 MaxDP=3.10D-02 DE=-6.72D-02 OVMax= 2.95D-02

 Cycle   6  Pass 0  IDiag  1:
 RMSU=  1.84D-05    CP:  9.93D-01  5.34D-01  9.83D-01  2.82D-01  9.24D-01
 E= -341.836181492463     Delta-E=       -0.005522723868 Rises=F Damp=F
 DIIS: error= 3.60D-04 at cycle   6 NSaved=   6.
 NSaved= 6 IEnMin= 6 EnMin= -341.836181492463     IErMin= 6 ErrMin= 3.60D-04
 ErrMax= 3.60D-04  0.00D+00 EMaxC= 1.00D-01 BMatC= 1.63D-05 BMatP= 6.22D-03
 IDIUse=3 WtCom= 9.96D-01 WtEn= 3.60D-03
 Coeff-Com:  0.253D-02-0.398D-02 0.130D+00-0.660D-01 0.465D+00 0.473D+00
 Coeff-En:   0.000D+00 0.000D+00 0.000D+00 0.000D+00 0.000D+00 0.100D+01
 Coeff:      0.252D-02-0.396D-02 0.129D+00-0.658D-01 0.463D+00 0.475D+00
 Gap=     0.160 Goal=   None    Shift=    0.000
 RMSDP=1.94D-05 MaxDP=1.10D-03 DE=-5.52D-03 OVMax= 1.76D-03

 Cycle   7  Pass 0  IDiag  1:
 RMSU=  6.62D-06    CP:  9.93D-01  5.37D-01  9.83D-01  2.89D-01  9.23D-01
                    CP:  6.89D-01
 E= -341.836196701079     Delta-E=       -0.000015208616 Rises=F Damp=F
 DIIS: error= 7.29D-05 at cycle   7 NSaved=   7.
 NSaved= 7 IEnMin= 7 EnMin= -341.836196701079     IErMin= 7 ErrMin= 7.29D-05
 ErrMax= 7.29D-05  0.00D+00 EMaxC= 1.00D-01 BMatC= 5.92D-07 BMatP= 1.63D-05
 IDIUse=1 WtCom= 1.00D+00 WtEn= 0.00D+00
 Coeff-Com:  0.888D-03-0.220D-02 0.277D-01-0.158D-01 0.109D+00 0.218D+00
 Coeff-Com:  0.662D+00
 Coeff:      0.888D-03-0.220D-02 0.277D-01-0.158D-01 0.109D+00 0.218D+00
 Coeff:      0.662D+00
 Gap=     0.160 Goal=   None    Shift=    0.000
 RMSDP=8.17D-06 MaxDP=3.43D-04 DE=-1.52D-05 OVMax= 2.96D-04

 Initial convergence to 1.0D-05 achieved.  Increase integral accuracy.
 Cycle   8  Pass 1  IDiag  1:
 E= -341.836184134778     Delta-E=        0.000012566301 Rises=F Damp=F
 DIIS: error= 1.15D-04 at cycle   1 NSaved=   1.
 NSaved= 1 IEnMin= 1 EnMin= -341.836184134778     IErMin= 1 ErrMin= 1.15D-04
 ErrMax= 1.15D-04  0.00D+00 EMaxC= 1.00D-01 BMatC= 9.87D-07 BMatP= 9.87D-07
 IDIUse=3 WtCom= 9.99D-01 WtEn= 1.15D-03
 Coeff-Com:  0.100D+01
 Coeff-En:   0.100D+01
 Coeff:      0.100D+01
 Gap=     0.160 Goal=   None    Shift=    0.000
 RMSDP=8.17D-06 MaxDP=3.43D-04 DE= 1.26D-05 OVMax= 1.20D-04

 Cycle   9  Pass 1  IDiag  1:
 RMSU=  1.10D-04    CP:  9.98D-01
 E= -341.836184470990     Delta-E=       -0.000000336212 Rises=F Damp=F
 DIIS: error= 2.23D-05 at cycle   2 NSaved=   2.
 NSaved= 2 IEnMin= 2 EnMin= -341.836184470990     IErMin= 2 ErrMin= 2.23D-05
 ErrMax= 2.23D-05  0.00D+00 EMaxC= 1.00D-01 BMatC= 7.53D-08 BMatP= 9.87D-07
 IDIUse=1 WtCom= 1.00D+00 WtEn= 0.00D+00
 Coeff-Com:  0.103D+00 0.897D+00
 Coeff:      0.103D+00 0.897D+00
 Gap=     0.160 Goal=   None    Shift=    0.000
 RMSDP=3.07D-06 MaxDP=1.59D-04 DE=-3.36D-07 OVMax= 1.87D-04

 Cycle  10  Pass 1  IDiag  1:
 RMSU=  2.97D-06    CP:  9.98D-01  1.00D+00
 E= -341.836184401535     Delta-E=        0.000000069454 Rises=F Damp=F
 DIIS: error= 4.13D-05 at cycle   3 NSaved=   3.
 NSaved= 3 IEnMin= 2 EnMin= -341.836184470990     IErMin= 2 ErrMin= 2.23D-05
 ErrMax= 4.13D-05  0.00D+00 EMaxC= 1.00D-01 BMatC= 1.52D-07 BMatP= 7.53D-08
 IDIUse=1 WtCom= 1.00D+00 WtEn= 0.00D+00
 Coeff-Com:  0.193D-02 0.588D+00 0.410D+00
 Coeff:      0.193D-02 0.588D+00 0.410D+00
 Gap=     0.160 Goal=   None    Shift=    0.000
 RMSDP=2.89D-06 MaxDP=1.72D-04 DE= 6.95D-08 OVMax= 1.42D-04

 Cycle  11  Pass 1  IDiag  1:
 RMSU=  6.33D-07    CP:  9.98D-01  1.02D+00  3.09D-01
 E= -341.836184534774     Delta-E=       -0.000000133238 Rises=F Damp=F
 DIIS: error= 8.90D-06 at cycle   4 NSaved=   4.
 NSaved= 4 IEnMin= 4 EnMin= -341.836184534774     IErMin= 4 ErrMin= 8.90D-06
 ErrMax= 8.90D-06  0.00D+00 EMaxC= 1.00D-01 BMatC= 7.33D-09 BMatP= 7.53D-08
 IDIUse=1 WtCom= 1.00D+00 WtEn= 0.00D+00
 Coeff-Com: -0.246D-02 0.364D+00 0.276D+00 0.362D+00
 Coeff:     -0.246D-02 0.364D+00 0.276D+00 0.362D+00
 Gap=     0.160 Goal=   None    Shift=    0.000
 RMSDP=2.64D-07 MaxDP=1.25D-05 DE=-1.33D-07 OVMax= 3.17D-05

 Cycle  12  Pass 1  IDiag  1:
 RMSU=  1.78D-07    CP:  9.98D-01  1.01D+00  3.51D-01  8.07D-01
 E= -341.836184541432     Delta-E=       -0.000000006659 Rises=F Damp=F
 DIIS: error= 4.68D-07 at cycle   5 NSaved=   5.
 NSaved= 5 IEnMin= 5 EnMin= -341.836184541432     IErMin= 5 ErrMin= 4.68D-07
 ErrMax= 4.68D-07  0.00D+00 EMaxC= 1.00D-01 BMatC= 3.02D-11 BMatP= 7.33D-09
 IDIUse=1 WtCom= 1.00D+00 WtEn= 0.00D+00
 Coeff-Com: -0.132D-02 0.187D+00 0.142D+00 0.193D+00 0.480D+00
 Coeff:     -0.132D-02 0.187D+00 0.142D+00 0.193D+00 0.480D+00
 Gap=     0.160 Goal=   None    Shift=    0.000
 RMSDP=5.13D-08 MaxDP=2.95D-06 DE=-6.66D-09 OVMax= 2.56D-06

 Cycle  13  Pass 1  IDiag  1:
 RMSU=  1.93D-08    CP:  9.98D-01  1.02D+00  3.42D-01  8.32D-01  1.01D+00
 E= -341.836184541458     Delta-E=       -0.000000000025 Rises=F Damp=F
 DIIS: error= 1.75D-07 at cycle   6 NSaved=   6.
 NSaved= 6 IEnMin= 6 EnMin= -341.836184541458     IErMin= 6 ErrMin= 1.75D-07
 ErrMax= 1.75D-07  0.00D+00 EMaxC= 1.00D-01 BMatC= 2.89D-12 BMatP= 3.02D-11
 IDIUse=1 WtCom= 1.00D+00 WtEn= 0.00D+00
 Coeff-Com: -0.211D-03 0.275D-01 0.205D-01 0.320D-01 0.244D+00 0.676D+00
 Coeff:     -0.211D-03 0.275D-01 0.205D-01 0.320D-01 0.244D+00 0.676D+00
 Gap=     0.160 Goal=   None    Shift=    0.000
 RMSDP=2.30D-08 MaxDP=9.68D-07 DE=-2.55D-11 OVMax= 8.11D-07

 Cycle  14  Pass 1  IDiag  1:
 RMSU=  5.42D-09    CP:  9.98D-01  1.02D+00  3.40D-01  8.46D-01  1.04D+00
                    CP:  8.98D-01
 E= -341.836184541463     Delta-E=       -0.000000000005 Rises=F Damp=F
 DIIS: error= 2.82D-08 at cycle   7 NSaved=   7.
 NSaved= 7 IEnMin= 7 EnMin= -341.836184541463     IErMin= 7 ErrMin= 2.82D-08
 ErrMax= 2.82D-08  0.00D+00 EMaxC= 1.00D-01 BMatC= 2.00D-13 BMatP= 2.89D-12
 IDIUse=1 WtCom= 1.00D+00 WtEn= 0.00D+00
 Coeff-Com: -0.995D-05 0.124D-03-0.426D-04 0.213D-02 0.774D-01 0.313D+00
 Coeff-Com:  0.607D+00
 Coeff:     -0.995D-05 0.124D-03-0.426D-04 0.213D-02 0.774D-01 0.313D+00
 Coeff:      0.607D+00
 Gap=     0.160 Goal=   None    Shift=    0.000
 RMSDP=3.32D-09 MaxDP=1.39D-07 DE=-5.46D-12 OVMax= 1.31D-07

 SCF Done:  E(RB3LYP) =  -341.836184541     A.U. after   14 cycles
            NFock= 14  Conv=0.33D-08     -V/T= 2.0050
 KE= 3.401491319449D+02 PE=-1.443465728853D+03 EE= 4.369915075173D+02
 Leave Link  502 at Tue Jan 14 14:13:38 2025, MaxMem=   104857600 cpu:             107.7 elap:             108.1
 (Enter /sw/cluster/pub/apps//g16/l601.exe)
 Copying SCF densities to generalized density rwf, IOpCl= 0 IROHF=0.

 **********************************************************************

            Population analysis using the SCF density.

 **********************************************************************

 Alpha  occ. eigenvalues --  -14.31852 -14.31851 -10.24066 -10.24065 -10.20470
 Alpha  occ. eigenvalues --  -10.20468 -10.20265 -10.20264  -0.93830  -0.92359
 Alpha  occ. eigenvalues --   -0.83198  -0.78532  -0.69113  -0.63947  -0.60221
 Alpha  occ. eigenvalues --   -0.53338  -0.52884  -0.47993  -0.45813  -0.44197
 Alpha  occ. eigenvalues --   -0.43114  -0.41961  -0.37528  -0.36536  -0.29810
 Alpha  occ. eigenvalues --   -0.28895  -0.28607  -0.26696
 Alpha virt. eigenvalues --   -0.10693  -0.02780   0.01902   0.03528   0.03903
 Alpha virt. eigenvalues --    0.06800   0.07377   0.09948   0.11442   0.12336
 Alpha virt. eigenvalues --    0.12356   0.15360   0.16148   0.18902   0.20773
 Alpha virt. eigenvalues --    0.20959   0.22528   0.23341   0.24094   0.26682
 Alpha virt. eigenvalues --    0.29252   0.30173   0.30491   0.31162   0.31195
 Alpha virt. eigenvalues --    0.31222   0.32158   0.34471   0.35204   0.38296
 Alpha virt. eigenvalues --    0.38634   0.39514   0.39980   0.40065   0.41602
 Alpha virt. eigenvalues --    0.44006   0.44216   0.44552   0.46102   0.47269
 Alpha virt. eigenvalues --    0.47297   0.48936   0.49487   0.53004   0.53248
 Alpha virt. eigenvalues --    0.57819   0.58218   0.58791   0.61361   0.62349
 Alpha virt. eigenvalues --    0.64307   0.64721   0.66900   0.68521   0.70598
 Alpha virt. eigenvalues --    0.70684   0.72981   0.74326   0.74397   0.79435
 Alpha virt. eigenvalues --    0.82388   0.84608   0.84950   0.85834   0.86617
 Alpha virt. eigenvalues --    0.96674   0.98212   0.99070   0.99954   1.02701
 Alpha virt. eigenvalues --    1.05096   1.07196   1.11596   1.14401   1.14458
 Alpha virt. eigenvalues --    1.16640   1.18270   1.19425   1.19946   1.24089
 Alpha virt. eigenvalues --    1.25430   1.26593   1.28777   1.31281   1.35148
 Alpha virt. eigenvalues --    1.35839   1.39817   1.41208   1.46743   1.47051
 Alpha virt. eigenvalues --    1.47132   1.47901   1.48718   1.49699   1.55160
 Alpha virt. eigenvalues --    1.56318   1.58360   1.59376   1.61247   1.61791
 Alpha virt. eigenvalues --    1.62122   1.63182   1.67336   1.68241   1.68883
 Alpha virt. eigenvalues --    1.78179   1.80870   1.81626   1.81645   1.83486
 Alpha virt. eigenvalues --    1.86519   1.90724   1.91760   1.96502   1.96837
 Alpha virt. eigenvalues --    2.00064   2.01027   2.03729   2.05291   2.08775
 Alpha virt. eigenvalues --    2.10887   2.12282   2.13151   2.17337   2.19631
 Alpha virt. eigenvalues --    2.21300   2.24705   2.26129   2.30205   2.34335
 Alpha virt. eigenvalues --    2.37715   2.42979   2.46659   2.49368   2.51750
 Alpha virt. eigenvalues --    2.55221   2.55559   2.56035   2.57937   2.59244
 Alpha virt. eigenvalues --    2.64328   2.66172   2.66702   2.68055   2.68722
 Alpha virt. eigenvalues --    2.72065   2.72956   2.74022   2.75688   2.79967
 Alpha virt. eigenvalues --    2.82755   2.83508   2.85864   2.87212   2.90822
 Alpha virt. eigenvalues --    2.92083   2.92555   2.94247   2.99716   3.03226
 Alpha virt. eigenvalues --    3.08129   3.09030   3.09264   3.10743   3.12341
 Alpha virt. eigenvalues --    3.12500   3.13901   3.16121   3.16706   3.19882
 Alpha virt. eigenvalues --    3.23807   3.24448   3.24946   3.26267   3.29200
 Alpha virt. eigenvalues --    3.31730   3.32098   3.33022   3.33887   3.38373
 Alpha virt. eigenvalues --    3.39828   3.40427   3.41424   3.42776   3.43631
 Alpha virt. eigenvalues --    3.47220   3.51146   3.52540   3.56232   3.60546
 Alpha virt. eigenvalues --    3.61137   3.62667   3.70980   3.72221   3.75882
 Alpha virt. eigenvalues --    3.76556   3.83957   3.87444   3.90664   3.90735
 Alpha virt. eigenvalues --    3.92668   3.96876   3.99941   4.07436   4.07840
 Alpha virt. eigenvalues --    4.11645   4.13861   4.14697   4.16886   4.19494
 Alpha virt. eigenvalues --    4.20047   4.22301   4.34219   4.38900   4.42363
 Alpha virt. eigenvalues --    4.49305   4.50613   4.58004   4.59021   4.66634
 Alpha virt. eigenvalues --    4.68099   4.69547   4.71239   4.73852   4.74705
 Alpha virt. eigenvalues --    4.75765   4.84782   4.85324   4.87859   4.88357
 Alpha virt. eigenvalues --    4.95323   4.98452   5.04136   5.09506   5.25238
 Alpha virt. eigenvalues --    5.27314   5.30357   5.31045   5.34816   5.37611
 Alpha virt. eigenvalues --    5.44965   5.51764   5.53623   5.65257   5.67209
 Alpha virt. eigenvalues --    5.70368   5.87808   6.12558  22.18638  22.45993
 Alpha virt. eigenvalues --   22.74584  22.84674  22.93284  23.29322  31.99331
 Alpha virt. eigenvalues --   32.04549
          Condensed to atoms (all electrons):
               1          2          3          4          5          6
     1  C    4.740561   0.319867   0.042624  -0.063015   0.072067   0.251744
     2  C    0.319867   5.247254   0.191458   0.072067  -0.043608  -0.012620
     3  C    0.042624   0.191458   5.543117   0.251744  -0.012620  -0.072417
     4  C   -0.063015   0.072067   0.251744   4.740561   0.319867   0.042624
     5  C    0.072067  -0.043608  -0.012620   0.319867   5.247254   0.191458
     6  C    0.251744  -0.012620  -0.072417   0.042624   0.191458   5.543117
     7  N    0.711513  -0.062489   0.002979  -0.005189   0.037125  -0.159261
     8  H   -0.031150   0.383883  -0.028879   0.006572  -0.006803   0.020003
     9  H    0.009361  -0.033501   0.417521  -0.053434   0.009433  -0.003791
    10  N   -0.005189   0.037125  -0.159261   0.711513  -0.062489   0.002979
    11  H    0.006572  -0.006803   0.020003  -0.031150   0.383883  -0.028879
    12  H   -0.053434   0.009433  -0.003791   0.009361  -0.033501   0.417521
    13  H   -0.001145   0.012448  -0.038691  -0.108085   0.015092  -0.000400
    14  H   -0.108085   0.015092  -0.000400  -0.001145   0.012448  -0.038691
               7          8          9         10         11         12
     1  C    0.711513  -0.031150   0.009361  -0.005189   0.006572  -0.053434
     2  C   -0.062489   0.383883  -0.033501   0.037125  -0.006803   0.009433
     3  C    0.002979  -0.028879   0.417521  -0.159261   0.020003  -0.003791
     4  C   -0.005189   0.006572  -0.053434   0.711513  -0.031150   0.009361
     5  C    0.037125  -0.006803   0.009433  -0.062489   0.383883  -0.033501
     6  C   -0.159261   0.020003  -0.003791   0.002979  -0.028879   0.417521
     7  N    6.371091   0.009871  -0.000045  -0.000014  -0.000411  -0.004599
     8  H    0.009871   0.535665  -0.009585  -0.000411   0.000149  -0.000292
     9  H   -0.000045  -0.009585   0.546499  -0.004599  -0.000292   0.000077
    10  N   -0.000014  -0.000411  -0.004599   6.371091   0.009871  -0.000045
    11  H   -0.000411   0.000149  -0.000292   0.009871   0.535665  -0.009585
    12  H   -0.004599  -0.000292   0.000077  -0.000045  -0.009585   0.546499
    13  H   -0.000002  -0.000147   0.004546   0.359309  -0.002411   0.000062
    14  H    0.359309  -0.002411   0.000062  -0.000002  -0.000147   0.004546
              13         14
     1  C   -0.001145  -0.108085
     2  C    0.012448   0.015092
     3  C   -0.038691  -0.000400
     4  C   -0.108085  -0.001145
     5  C    0.015092   0.012448
     6  C   -0.000400  -0.038691
     7  N   -0.000002   0.359309
     8  H   -0.000147  -0.002411
     9  H    0.004546   0.000062
    10  N    0.359309  -0.000002
    11  H   -0.002411  -0.000147
    12  H    0.000062   0.004546
    13  H    0.565542   0.000000
    14  H    0.000000   0.565542
 Mulliken charges:
               1
     1  C    0.107709
     2  C   -0.129607
     3  C   -0.153387
     4  C    0.107709
     5  C   -0.129607
     6  C   -0.153387
     7  N   -0.259878
     8  H    0.123536
     9  H    0.117747
    10  N   -0.259878
    11  H    0.123536
    12  H    0.117747
    13  H    0.193881
    14  H    0.193881
 Sum of Mulliken charges =  -0.00000
 Mulliken charges with hydrogens summed into heavy atoms:
               1
     1  C    0.107709
     2  C   -0.006071
     3  C   -0.035640
     4  C    0.107709
     5  C   -0.006071
     6  C   -0.035640
     7  N   -0.065997
    10  N   -0.065997
 Electronic spatial extent (au):  <R**2>=            904.2481
 Charge=             -0.0000 electrons
 Dipole moment (field-independent basis, Debye):
    X=             -0.0000    Y=              0.0000    Z=             -0.0000  Tot=              0.0000
 Quadrupole moment (field-independent basis, Debye-Ang):
   XX=            -59.8102   YY=            -35.9153   ZZ=            -49.4314
   XY=              2.5454   XZ=             -0.0000   YZ=              0.0000
 Traceless Quadrupole moment (field-independent basis, Debye-Ang):
   XX=            -11.4246   YY=             12.4703   ZZ=             -1.0457
   XY=              2.5454   XZ=             -0.0000   YZ=              0.0000
 Octapole moment (field-independent basis, Debye-Ang**2):
  XXX=              0.0000  YYY=              0.0000  ZZZ=             -0.0000  XYY=              0.0000
  XXY=              0.0000  XXZ=             -0.0000  XZZ=             -0.0000  YZZ=             -0.0000
  YYZ=             -0.0000  XYZ=              0.0000
 Hexadecapole moment (field-independent basis, Debye-Ang**3):
 XXXX=           -867.7599 YYYY=           -378.2163 ZZZZ=            -54.7541 XXXY=            170.5399
 XXXZ=             -0.0000 YYYX=             70.8502 YYYZ=              0.0000 ZZZX=             -0.0000
 ZZZY=              0.0000 XXYY=           -171.0393 XXZZ=           -133.1793 YYZZ=            -93.8091
 XXYZ=              0.0000 YYXZ=             -0.0000 ZZXY=             38.5275
 N-N= 3.244889048497D+02 E-N=-1.443465722173D+03  KE= 3.401491319449D+02
 No NMR shielding tensors so no spin-rotation constants.
 Leave Link  601 at Tue Jan 14 14:13:38 2025, MaxMem=   104857600 cpu:               0.1 elap:               0.1
 (Enter /sw/cluster/pub/apps//g16/l9999.exe)
 1\1\GINC-N02\SP\RB3LYP\def2TZVP\C6H6N2\UNKNOWN\14-Jan-2025\0\\#P B3LYP
 /def2tzvp nosymm Density=Current\\Single-Point\\0,1\C,0,1.22550535,-0.
 75565244,0.\C,0,1.22550535,0.71083449,0.\C,0,0.0860721,1.4138895,0.\C,
 0,-1.22550535,0.75565244,0.\C,0,-1.22550535,-0.71083449,0.\C,0,-0.0860
 721,-1.4138895,0.\N,0,2.35555472,-1.36523049,0.\H,0,2.19682918,1.18866
 4,0.\H,0,0.09918706,2.4983628,0.\N,0,-2.35555472,1.36523049,0.\H,0,-2.
 19682918,-1.188664,0.\H,0,-0.09918706,-2.4983628,0.\H,0,-2.22336092,2.
 37838312,0.\H,0,2.22336092,-2.37838312,0.\\Version=ES64L-G16RevA.03\HF
 =-341.8361845\RMSD=3.315e-09\Dipole=0.,0.,0.\Quadrupole=-8.4938962,9.2
 713797,-0.7774836,1.8924103,0.,0.\PG=C02H [SGH(C6H6N2)]\\@


 MY GROUP MEETINGS AREN'T VERY STRUCTURED.
     -- PROF. M. S. GORDON, OCT. 5, 1984
 Job cpu time:       0 days  0 hours  1 minutes 50.3 seconds.
 Elapsed time:       0 days  0 hours  1 minutes 50.7 seconds.
 File lengths (MBytes):  RWF=     49 Int=      0 D2E=      0 Chk=      6 Scr=      1
 Normal termination of Gaussian 16 at Tue Jan 14 14:13:38 2025.
