 Entering Gaussian System, Link 0=g16
 Initial command:
 /sw/cluster/pub/apps//g16/l1.exe "/data/mmaximo/28054/Gau-2502178.inp" -scrdir="/data/mmaximo/28054/"
 Entering Link 1 = /sw/cluster/pub/apps//g16/l1.exe PID=   2502179.
  
 Copyright (c) 1988,1990,1992,1993,1995,1998,2003,2009,2016,
            Gaussian, Inc.  All Rights Reserved.
  
 This is part of the Gaussian(R) 16 program.  It is based on
 the Gaussian(R) 09 system (copyright 2009, Gaussian, Inc.),
 the Gaussian(R) 03 system (copyright 2003, Gaussian, Inc.),
 the Gaussian(R) 98 system (copyright 1998, Gaussian, Inc.),
 the Gaussian(R) 94 system (copyright 1995, Gaussian, Inc.),
 the Gaussian 92(TM) system (copyright 1992, Gaussian, Inc.),
 the Gaussian 90(TM) system (copyright 1990, Gaussian, Inc.),
 the Gaussian 88(TM) system (copyright 1988, Gaussian, Inc.),
 the Gaussian 86(TM) system (copyright 1986, Carnegie Mellon
 University), and the Gaussian 82(TM) system (copyright 1983,
 Carnegie Mellon University). Gaussian is a federally registered
 trademark of Gaussian, Inc.
  
 This software contains proprietary and confidential information,
 including trade secrets, belonging to Gaussian, Inc.
  
 This software is provided under written license and may be
 used, copied, transmitted, or stored only in accord with that
 written license.
  
 The following legend is applicable only to US Government
 contracts under FAR:
  
                    RESTRICTED RIGHTS LEGEND
  
 Use, reproduction and disclosure by the US Government is
 subject to restrictions as set forth in subparagraphs (a)
 and (c) of the Commercial Computer Software - Restricted
 Rights clause in FAR 52.227-19.
  
 Gaussian, Inc.
 340 Quinnipiac St., Bldg. 40, Wallingford CT 06492
  
  
 ---------------------------------------------------------------
 Warning -- This program may not be used in any manner that
 competes with the business of Gaussian, Inc. or will provide
 assistance to any competitor of Gaussian, Inc.  The licensee
 of this program is prohibited from giving any competitor of
 Gaussian, Inc. access to this program.  By using this program,
 the user acknowledges that Gaussian, Inc. is engaged in the
 business of creating and licensing software in the field of
 computational chemistry and represents and warrants to the
 licensee that it is not a competitor of Gaussian, Inc. and that
 it will not use this program in any manner prohibited above.
 ---------------------------------------------------------------
  

 Cite this work as:
 Gaussian 16, Revision A.03,
 M. J. Frisch, G. W. Trucks, H. B. Schlegel, G. E. Scuseria, 
 M. A. Robb, J. R. Cheeseman, G. Scalmani, V. Barone, 
 G. A. Petersson, H. Nakatsuji, X. Li, M. Caricato, A. V. Marenich, 
 J. Bloino, B. G. Janesko, R. Gomperts, B. Mennucci, H. P. Hratchian, 
 J. V. Ortiz, A. F. Izmaylov, J. L. Sonnenberg, D. Williams-Young, 
 F. Ding, F. Lipparini, F. Egidi, J. Goings, B. Peng, A. Petrone, 
 T. Henderson, D. Ranasinghe, V. G. Zakrzewski, J. Gao, N. Rega, 
 G. Zheng, W. Liang, M. Hada, M. Ehara, K. Toyota, R. Fukuda, 
 J. Hasegawa, M. Ishida, T. Nakajima, Y. Honda, O. Kitao, H. Nakai, 
 T. Vreven, K. Throssell, J. A. Montgomery, Jr., J. E. Peralta, 
 F. Ogliaro, M. J. Bearpark, J. J. Heyd, E. N. Brothers, K. N. Kudin, 
 V. N. Staroverov, T. A. Keith, R. Kobayashi, J. Normand, 
 K. Raghavachari, A. P. Rendell, J. C. Burant, S. S. Iyengar, 
 J. Tomasi, M. Cossi, J. M. Millam, M. Klene, C. Adamo, R. Cammi, 
 J. W. Ochterski, R. L. Martin, K. Morokuma, O. Farkas, 
 J. B. Foresman, and D. J. Fox, Gaussian, Inc., Wallingford CT, 2016.
 
 ******************************************
 Gaussian 16:  ES64L-G16RevA.03 25-Dec-2016
                20-Jan-2025 
 ******************************************
 %chk=C6H4-CH3-2.chk
 -------------------------
 # opt freq b3lyp def2tzvp
 -------------------------
 1/18=20,19=15,26=3,38=1/1,3;
 2/9=110,12=2,17=6,18=5,40=1/2;
 3/5=44,7=101,11=2,25=1,30=1,71=1,74=-5/1,2,3;
 4//1;
 5/5=2,38=5/2;
 6/7=2,8=2,9=2,10=2,28=1/1;
 7//1,2,3,16;
 1/18=20,19=15,26=3/3(2);
 2/9=110/2;
 99//99;
 2/9=110/2;
 3/5=44,7=101,11=2,25=1,30=1,71=1,74=-5/1,2,3;
 4/5=5,16=3,69=1/1;
 5/5=2,38=5/2;
 7//1,2,3,16;
 1/18=20,19=15,26=3/3(-5);
 2/9=110/2;
 6/7=2,8=2,9=2,10=2,19=2,28=1/1;
 99/9=1/99;
 --------
 opt meta
 --------
 Symbolic Z-matrix:
 Charge =  0 Multiplicity = 1
 C                     1.40587   0.17904   0.32219 
 C                     0.80885  -1.04373   0.65737 
 C                    -0.56793  -1.226     0.46978 
 C                    -1.34768  -0.18551  -0.05298 
 C                    -0.75066   1.03725  -0.38816 
 C                     0.62611   1.21953  -0.20057 
 H                     1.40421  -1.83816   1.05651 
 H                    -1.02377  -2.1596    0.7257 
 H                    -1.34603   1.83169  -0.7873 
 C                     2.91881   0.37934   0.52834 
 C                    -2.86062  -0.3858   -0.25912 
 H                     3.42112  -0.55895   0.41789 
 H                     3.28958   1.07027  -0.1997 
 H                     3.09692   0.76586   1.51006 
 H                    -3.23139  -1.07673   0.46893 
 H                    -3.36294   0.55248  -0.14867 
 H                    -3.03874  -0.77233  -1.24084 
 C                     1.28218   2.56322  -0.5689 
 O                     2.51846   2.72689  -0.40045 
 O                     0.48651   3.62494  -1.10233 
 H                     0.86856   4.46884  -0.85038 
 

 GradGradGradGradGradGradGradGradGradGradGradGradGradGradGradGradGradGrad
 Berny optimization.
 Initialization pass.
                           ----------------------------
                           !    Initial Parameters    !
                           ! (Angstroms and Degrees)  !
 --------------------------                            --------------------------
 ! Name  Definition              Value          Derivative Info.                !
 --------------------------------------------------------------------------------
 ! R1    R(1,2)                  1.4014         estimate D2E/DX2                !
 ! R2    R(1,6)                  1.4014         estimate D2E/DX2                !
 ! R3    R(1,10)                 1.54           estimate D2E/DX2                !
 ! R4    R(2,3)                  1.4014         estimate D2E/DX2                !
 ! R5    R(2,7)                  1.07           estimate D2E/DX2                !
 ! R6    R(3,4)                  1.4014         estimate D2E/DX2                !
 ! R7    R(3,8)                  1.07           estimate D2E/DX2                !
 ! R8    R(4,5)                  1.4014         estimate D2E/DX2                !
 ! R9    R(4,11)                 1.54           estimate D2E/DX2                !
 ! R10   R(5,6)                  1.4014         estimate D2E/DX2                !
 ! R11   R(5,9)                  1.07           estimate D2E/DX2                !
 ! R12   R(6,18)                 1.54           estimate D2E/DX2                !
 ! R13   R(10,12)                1.07           estimate D2E/DX2                !
 ! R14   R(10,13)                1.07           estimate D2E/DX2                !
 ! R15   R(10,14)                1.07           estimate D2E/DX2                !
 ! R16   R(11,15)                1.07           estimate D2E/DX2                !
 ! R17   R(11,16)                1.07           estimate D2E/DX2                !
 ! R18   R(11,17)                1.07           estimate D2E/DX2                !
 ! R19   R(18,19)                1.2584         estimate D2E/DX2                !
 ! R20   R(18,20)                1.43           estimate D2E/DX2                !
 ! R21   R(20,21)                0.96           estimate D2E/DX2                !
 ! A1    A(2,1,6)              120.0            estimate D2E/DX2                !
 ! A2    A(2,1,10)             120.0            estimate D2E/DX2                !
 ! A3    A(6,1,10)             120.0            estimate D2E/DX2                !
 ! A4    A(1,2,3)              120.0            estimate D2E/DX2                !
 ! A5    A(1,2,7)              120.0            estimate D2E/DX2                !
 ! A6    A(3,2,7)              120.0            estimate D2E/DX2                !
 ! A7    A(2,3,4)              120.0            estimate D2E/DX2                !
 ! A8    A(2,3,8)              120.0            estimate D2E/DX2                !
 ! A9    A(4,3,8)              120.0            estimate D2E/DX2                !
 ! A10   A(3,4,5)              120.0            estimate D2E/DX2                !
 ! A11   A(3,4,11)             120.0            estimate D2E/DX2                !
 ! A12   A(5,4,11)             120.0            estimate D2E/DX2                !
 ! A13   A(4,5,6)              120.0            estimate D2E/DX2                !
 ! A14   A(4,5,9)              120.0            estimate D2E/DX2                !
 ! A15   A(6,5,9)              120.0            estimate D2E/DX2                !
 ! A16   A(1,6,5)              120.0            estimate D2E/DX2                !
 ! A17   A(1,6,18)             120.0            estimate D2E/DX2                !
 ! A18   A(5,6,18)             120.0            estimate D2E/DX2                !
 ! A19   A(1,10,12)            109.4712         estimate D2E/DX2                !
 ! A20   A(1,10,13)            109.4712         estimate D2E/DX2                !
 ! A21   A(1,10,14)            109.4712         estimate D2E/DX2                !
 ! A22   A(12,10,13)           109.4712         estimate D2E/DX2                !
 ! A23   A(12,10,14)           109.4712         estimate D2E/DX2                !
 ! A24   A(13,10,14)           109.4712         estimate D2E/DX2                !
 ! A25   A(4,11,15)            109.4712         estimate D2E/DX2                !
 ! A26   A(4,11,16)            109.4712         estimate D2E/DX2                !
 ! A27   A(4,11,17)            109.4712         estimate D2E/DX2                !
 ! A28   A(15,11,16)           109.4712         estimate D2E/DX2                !
 ! A29   A(15,11,17)           109.4712         estimate D2E/DX2                !
 ! A30   A(16,11,17)           109.4712         estimate D2E/DX2                !
 ! A31   A(6,18,19)            120.0            estimate D2E/DX2                !
 ! A32   A(6,18,20)            120.0            estimate D2E/DX2                !
 ! A33   A(19,18,20)           120.0            estimate D2E/DX2                !
 ! A34   A(18,20,21)           109.4712         estimate D2E/DX2                !
 ! D1    D(6,1,2,3)             -0.0002         estimate D2E/DX2                !
 ! D2    D(6,1,2,7)            179.9998         estimate D2E/DX2                !
 ! D3    D(10,1,2,3)           179.9998         estimate D2E/DX2                !
 ! D4    D(10,1,2,7)            -0.0002         estimate D2E/DX2                !
 ! D5    D(2,1,6,5)              0.0002         estimate D2E/DX2                !
 ! D6    D(2,1,6,18)          -179.9999         estimate D2E/DX2                !
 ! D7    D(10,1,6,5)          -179.9998         estimate D2E/DX2                !
 ! D8    D(10,1,6,18)            0.0001         estimate D2E/DX2                !
 ! D9    D(2,1,10,12)           30.0            estimate D2E/DX2                !
 ! D10   D(2,1,10,13)          150.0            estimate D2E/DX2                !
 ! D11   D(2,1,10,14)          -90.0            estimate D2E/DX2                !
 ! D12   D(6,1,10,12)         -150.0            estimate D2E/DX2                !
 ! D13   D(6,1,10,13)          -30.0            estimate D2E/DX2                !
 ! D14   D(6,1,10,14)           90.0            estimate D2E/DX2                !
 ! D15   D(1,2,3,4)             -0.0001         estimate D2E/DX2                !
 ! D16   D(1,2,3,8)           -179.9999         estimate D2E/DX2                !
 ! D17   D(7,2,3,4)           -180.0            estimate D2E/DX2                !
 ! D18   D(7,2,3,8)              0.0001         estimate D2E/DX2                !
 ! D19   D(2,3,4,5)              0.0002         estimate D2E/DX2                !
 ! D20   D(2,3,4,11)          -179.9998         estimate D2E/DX2                !
 ! D21   D(8,3,4,5)           -179.9999         estimate D2E/DX2                !
 ! D22   D(8,3,4,11)             0.0001         estimate D2E/DX2                !
 ! D23   D(3,4,5,6)             -0.0002         estimate D2E/DX2                !
 ! D24   D(3,4,5,9)            179.9999         estimate D2E/DX2                !
 ! D25   D(11,4,5,6)           179.9998         estimate D2E/DX2                !
 ! D26   D(11,4,5,9)            -0.0001         estimate D2E/DX2                !
 ! D27   D(3,4,11,15)           30.0            estimate D2E/DX2                !
 ! D28   D(3,4,11,16)          150.0            estimate D2E/DX2                !
 ! D29   D(3,4,11,17)          -90.0            estimate D2E/DX2                !
 ! D30   D(5,4,11,15)         -150.0            estimate D2E/DX2                !
 ! D31   D(5,4,11,16)          -30.0            estimate D2E/DX2                !
 ! D32   D(5,4,11,17)           90.0            estimate D2E/DX2                !
 ! D33   D(4,5,6,1)             -0.0001         estimate D2E/DX2                !
 ! D34   D(4,5,6,18)          -179.9999         estimate D2E/DX2                !
 ! D35   D(9,5,6,1)            179.9999         estimate D2E/DX2                !
 ! D36   D(9,5,6,18)             0.0            estimate D2E/DX2                !
 ! D37   D(1,6,18,19)            0.0            estimate D2E/DX2                !
 ! D38   D(1,6,18,20)         -180.0            estimate D2E/DX2                !
 ! D39   D(5,6,18,19)          179.9999         estimate D2E/DX2                !
 ! D40   D(5,6,18,20)           -0.0001         estimate D2E/DX2                !
 ! D41   D(6,18,20,21)         150.0            estimate D2E/DX2                !
 ! D42   D(19,18,20,21)        -30.0            estimate D2E/DX2                !
 --------------------------------------------------------------------------------
 Trust Radius=3.00D-01 FncErr=1.00D-07 GrdErr=1.00D-06 EigMax=2.50D+02 EigMin=1.00D-04
 Number of steps in this run=    107 maximum allowed number of steps=    126.
 GradGradGradGradGradGradGradGradGradGradGradGradGradGradGradGradGradGrad

                          Input orientation:                          
 ---------------------------------------------------------------------
 Center     Atomic      Atomic             Coordinates (Angstroms)
 Number     Number       Type             X           Y           Z
 ---------------------------------------------------------------------
      1          6           0        1.405866    0.179036    0.322194
      2          6           0        0.808847   -1.043726    0.657370
      3          6           0       -0.567928   -1.225998    0.469782
      4          6           0       -1.347684   -0.185507   -0.052980
      5          6           0       -0.750665    1.037254   -0.388159
      6          6           0        0.626111    1.219526   -0.200572
      7          1           0        1.404208   -1.838164    1.056511
      8          1           0       -1.023765   -2.159603    0.725697
      9          1           0       -1.346026    1.831692   -0.787302
     10          6           0        2.918805    0.379336    0.528339
     11          6           0       -2.860625   -0.385803   -0.259116
     12          1           0        3.421121   -0.558949    0.417891
     13          1           0        3.289577    1.070265   -0.199704
     14          1           0        3.096915    0.765863    1.510059
     15          1           0       -3.231394   -1.076731    0.468928
     16          1           0       -3.362938    0.552483   -0.148666
     17          1           0       -3.038741   -0.772329   -1.240835
     18          6           0        1.282176    2.563220   -0.568899
     19          8           0        2.518463    2.726893   -0.400452
     20          8           0        0.486507    3.624944   -1.102334
     21          1           0        0.868556    4.468839   -0.850384
 ---------------------------------------------------------------------
                    Distance matrix (angstroms):
                    1          2          3          4          5
     1  C    0.000000
     2  C    1.401400   0.000000
     3  C    2.427296   1.401400   0.000000
     4  C    2.802800   2.427296   1.401400   0.000000
     5  C    2.427296   2.802800   2.427296   1.401400   0.000000
     6  C    1.401400   2.427296   2.802800   2.427296   1.401400
     7  H    2.146700   1.070000   2.146700   3.396345   3.872800
     8  H    3.396345   2.146700   1.070000   2.146700   3.396345
     9  H    3.396345   3.872800   3.396345   2.146700   1.070000
    10  C    1.540000   2.548270   3.838989   4.342800   3.838989
    11  C    4.342800   3.838989   2.548270   1.540000   2.548270
    12  H    2.148263   2.667646   4.044769   4.806525   4.538874
    13  H    2.148263   3.370097   4.538874   4.806525   4.044769
    14  H    2.148263   3.039234   4.298925   4.806523   4.298925
    15  H    4.806523   4.044768   2.667646   2.148263   3.370097
    16  H    4.806523   4.538873   3.370097   2.148263   2.667646
    17  H    4.806526   4.298927   3.039234   2.148263   3.039234
    18  C    2.548270   3.838989   4.342800   3.838989   2.548270
    19  O    2.872571   4.273095   5.090036   4.852825   3.679977
    20  O    3.840414   4.999694   5.207208   4.357170   2.955804
    21  H    4.479515   5.715353   6.019759   5.216369   3.822473
                    6          7          8          9         10
     6  C    0.000000
     7  H    3.396345   0.000000
     8  H    3.872800   2.471400   0.000000
     9  H    2.146700   4.942800   4.280590   0.000000
    10  C    2.548270   2.736837   4.693509   4.693509   0.000000
    11  C    3.838989   4.693509   2.736837   2.736837   5.882800
    12  H    3.370097   2.472279   4.734327   5.467480   1.070000
    13  H    2.667646   3.686685   5.467480   4.734327   1.070000
    14  H    3.039234   3.138776   5.114057   5.114057   1.070000
    15  H    4.538873   4.734326   2.472280   3.686686   6.320492
    16  H    4.044768   5.467479   3.686686   2.472280   6.320492
    17  H    4.298927   5.114059   3.138775   3.138774   6.320496
    18  C    1.540000   4.693509   5.412800   2.736837   2.941400
    19  O    2.427572   4.919761   6.139499   3.985638   2.556159
    20  O    2.572683   5.945446   6.251688   2.583249   4.371400
    21  H    3.322510   6.610708   7.071150   3.444256   4.777911
                   11         12         13         14         15
    11  C    0.000000
    12  H    6.320495   0.000000
    13  H    6.320495   1.747303   0.000000
    14  H    6.320490   1.747303   1.747303   0.000000
    15  H    1.070000   6.672830   6.897806   6.672826   0.000000
    16  H    1.070000   6.897806   6.672830   6.672826   1.747303
    17  H    1.070000   6.672835   6.672835   6.897806   1.747303
    18  C    5.094654   3.911110   2.528810   3.293302   5.890556
    19  O    6.216385   3.504459   1.838296   2.798266   6.948686
    20  O    5.291541   5.331792   3.898503   4.670458   6.196564
    21  H    6.150118   5.779513   4.223154   4.924359   7.021648
                   16         17         18         19         20
    16  H    0.000000
    17  H    1.747303   0.000000
    18  C    5.079049   5.499792   0.000000
    19  O    6.275535   6.620674   1.258400   0.000000
    20  O    5.016745   5.637603   1.430000   2.329803   0.000000
    21  H    5.808253   6.548990   1.970203   2.441108   0.960000
                   21
    21  H    0.000000
 Stoichiometry    C9H10O2
 Framework group  C1[X(C9H10O2)]
 Deg. of freedom    57
 Full point group                 C1      NOp   1
 Largest Abelian subgroup         C1      NOp   1
 Largest concise Abelian subgroup C1      NOp   1
                         Standard orientation:                         
 ---------------------------------------------------------------------
 Center     Atomic      Atomic             Coordinates (Angstroms)
 Number     Number       Type             X           Y           Z
 ---------------------------------------------------------------------
      1          6           0       -0.277585    1.240439    0.001688
      2          6           0        0.994748    1.827815    0.010627
      3          6           0        2.139634    1.019634    0.009593
      4          6           0        2.012187   -0.375923   -0.000379
      5          6           0        0.739854   -0.963299   -0.009322
      6          6           0       -0.405032   -0.155118   -0.008289
      7          1           0        1.092057    2.893354    0.018240
      8          1           0        3.111089    1.468109    0.016419
      9          1           0        0.642546   -2.028838   -0.016937
     10          6           0       -1.535702    2.128550    0.002828
     11          6           0        3.270304   -1.264034   -0.001510
     12          1           0       -1.321302    3.051377   -0.494487
     13          1           0       -2.328942    1.623952   -0.508104
     14          1           0       -1.831007    2.327385    1.011867
     15          1           0        4.063542   -0.759434    0.509424
     16          1           0        3.055902   -2.186860    0.495808
     17          1           0        3.565614   -1.462873   -1.010546
     18          6           0       -1.803200   -0.800586   -0.018114
     19          8           0       -2.831261   -0.074873   -0.017184
     20          8           0       -1.933248   -2.224624   -0.028294
     21          1           0       -2.744693   -2.475061    0.419410
 ---------------------------------------------------------------------
 Rotational constants (GHZ):           1.7235739           0.8705575           0.5827786
 Standard basis: def2TZVP (5D, 7F)
 There are   456 symmetry adapted cartesian basis functions of A   symmetry.
 There are   401 symmetry adapted basis functions of A   symmetry.
   401 basis functions,   641 primitive gaussians,   456 cartesian basis functions
    40 alpha electrons       40 beta electrons
       nuclear repulsion energy       578.6993334396 Hartrees.
 NAtoms=   21 NActive=   21 NUniq=   21 SFac= 1.00D+00 NAtFMM=   60 NAOKFM=F Big=F
 Integral buffers will be    131072 words long.
 Raffenetti 2 integral format.
 Two-electron integral symmetry is turned on.
 One-electron integrals computed using PRISM.
   1 Symmetry operations used in ECPInt.
 ECPInt:  NShTT=   13041 NPrTT=   39612 LenC2=   12414 LenP2D=   29053.
 LDataN:  DoStor=T MaxTD1= 6 Len=  172
 NBasis=   401 RedAO= T EigKep=  6.39D-06  NBF=   401
 NBsUse=   401 1.00D-06 EigRej= -1.00D+00 NBFU=   401
 ExpMin= 9.52D-02 ExpMax= 2.70D+04 ExpMxC= 9.22D+02 IAcc=3 IRadAn=         5 AccDes= 0.00D+00
 Harris functional with IExCor=  402 and IRadAn=       5 diagonalized for initial guess.
 HarFok:  IExCor=  402 AccDes= 0.00D+00 IRadAn=         5 IDoV= 1 UseB2=F ITyADJ=14
 ICtDFT=  3500011 ScaDFX=  1.000000  1.000000  1.000000  1.000000
 FoFCou: FMM=F IPFlag=           0 FMFlag=      100000 FMFlg1=           0
         NFxFlg=           0 DoJE=T BraDBF=F KetDBF=T FulRan=T
         wScrn=  0.000000 ICntrl=       500 IOpCl=  0 I1Cent=   200000004 NGrid=           0
         NMat0=    1 NMatS0=      1 NMatT0=    0 NMatD0=    1 NMtDS0=    0 NMtDT0=    0
 Petite list used in FoFCou.
 Requested convergence on RMS density matrix=1.00D-08 within 128 cycles.
 Requested convergence on MAX density matrix=1.00D-06.
 Requested convergence on             energy=1.00D-06.
 No special actions if energy rises.
 Integral accuracy reduced to 1.0D-05 until final iterations.
 Initial convergence to 1.0D-05 achieved.  Increase integral accuracy.
 SCF Done:  E(RB3LYP) =  -499.623640998     A.U. after   15 cycles
            NFock= 15  Conv=0.54D-08     -V/T= 2.0055

 **********************************************************************

            Population analysis using the SCF density.

 **********************************************************************

 Orbital symmetries:
       Occupied  (A) (A) (A) (A) (A) (A) (A) (A) (A) (A) (A) (A)
                 (A) (A) (A) (A) (A) (A) (A) (A) (A) (A) (A) (A)
                 (A) (A) (A) (A) (A) (A) (A) (A) (A) (A) (A) (A)
                 (A) (A) (A) (A)
       Virtual   (A) (A) (A) (A) (A) (A) (A) (A) (A) (A) (A) (A)
                 (A) (A) (A) (A) (A) (A) (A) (A) (A) (A) (A) (A)
                 (A) (A) (A) (A) (A) (A) (A) (A) (A) (A) (A) (A)
                 (A) (A) (A) (A) (A) (A) (A) (A) (A) (A) (A) (A)
                 (A) (A) (A) (A) (A) (A) (A) (A) (A) (A) (A) (A)
                 (A) (A) (A) (A) (A) (A) (A) (A) (A) (A) (A) (A)
                 (A) (A) (A) (A) (A) (A) (A) (A) (A) (A) (A) (A)
                 (A) (A) (A) (A) (A) (A) (A) (A) (A) (A) (A) (A)
                 (A) (A) (A) (A) (A) (A) (A) (A) (A) (A) (A) (A)
                 (A) (A) (A) (A) (A) (A) (A) (A) (A) (A) (A) (A)
                 (A) (A) (A) (A) (A) (A) (A) (A) (A) (A) (A) (A)
                 (A) (A) (A) (A) (A) (A) (A) (A) (A) (A) (A) (A)
                 (A) (A) (A) (A) (A) (A) (A) (A) (A) (A) (A) (A)
                 (A) (A) (A) (A) (A) (A) (A) (A) (A) (A) (A) (A)
                 (A) (A) (A) (A) (A) (A) (A) (A) (A) (A) (A) (A)
                 (A) (A) (A) (A) (A) (A) (A) (A) (A) (A) (A) (A)
                 (A) (A) (A) (A) (A) (A) (A) (A) (A) (A) (A) (A)
                 (A) (A) (A) (A) (A) (A) (A) (A) (A) (A) (A) (A)
                 (A) (A) (A) (A) (A) (A) (A) (A) (A) (A) (A) (A)
                 (A) (A) (A) (A) (A) (A) (A) (A) (A) (A) (A) (A)
                 (A) (A) (A) (A) (A) (A) (A) (A) (A) (A) (A) (A)
                 (A) (A) (A) (A) (A) (A) (A) (A) (A) (A) (A) (A)
                 (A) (A) (A) (A) (A) (A) (A) (A) (A) (A) (A) (A)
                 (A) (A) (A) (A) (A) (A) (A) (A) (A) (A) (A) (A)
                 (A) (A) (A) (A) (A) (A) (A) (A) (A) (A) (A) (A)
                 (A) (A) (A) (A) (A) (A) (A) (A) (A) (A) (A) (A)
                 (A) (A) (A) (A) (A) (A) (A) (A) (A) (A) (A) (A)
                 (A) (A) (A) (A) (A) (A) (A) (A) (A) (A) (A) (A)
                 (A) (A) (A) (A) (A) (A) (A) (A) (A) (A) (A) (A)
                 (A) (A) (A) (A) (A) (A) (A) (A) (A) (A) (A) (A)
                 (A)
 The electronic state is 1-A.
 Alpha  occ. eigenvalues --  -19.17445 -19.12288 -10.32795 -10.20640 -10.19944
 Alpha  occ. eigenvalues --  -10.19506 -10.18824 -10.18790 -10.18397 -10.17090
 Alpha  occ. eigenvalues --  -10.14639  -1.08278  -1.00745  -0.87320  -0.79405
 Alpha  occ. eigenvalues --   -0.76978  -0.72421  -0.67250  -0.64936  -0.61732
 Alpha  occ. eigenvalues --   -0.57549  -0.51882  -0.48930  -0.48553  -0.47760
 Alpha  occ. eigenvalues --   -0.44793  -0.44602  -0.43406  -0.41810  -0.40938
 Alpha  occ. eigenvalues --   -0.39900  -0.39181  -0.37380  -0.36866  -0.35892
 Alpha  occ. eigenvalues --   -0.34445  -0.32891  -0.27213  -0.27141  -0.25020
 Alpha virt. eigenvalues --   -0.06698  -0.02081   0.01927   0.02975   0.04326
 Alpha virt. eigenvalues --    0.05864   0.06876   0.08872   0.10203   0.10611
 Alpha virt. eigenvalues --    0.12571   0.12835   0.12925   0.14054   0.15037
 Alpha virt. eigenvalues --    0.15239   0.16463   0.16929   0.17646   0.18942
 Alpha virt. eigenvalues --    0.19696   0.20713   0.21139   0.22251   0.24123
 Alpha virt. eigenvalues --    0.25321   0.25804   0.26856   0.27138   0.27746
 Alpha virt. eigenvalues --    0.28652   0.29007   0.30151   0.31353   0.32109
 Alpha virt. eigenvalues --    0.33328   0.33849   0.35477   0.35888   0.36492
 Alpha virt. eigenvalues --    0.37602   0.38457   0.39477   0.40524   0.41608
 Alpha virt. eigenvalues --    0.42284   0.42836   0.43553   0.44572   0.45528
 Alpha virt. eigenvalues --    0.45708   0.46789   0.47477   0.48000   0.48858
 Alpha virt. eigenvalues --    0.50024   0.50539   0.50680   0.51986   0.52660
 Alpha virt. eigenvalues --    0.54344   0.55360   0.56509   0.58875   0.59201
 Alpha virt. eigenvalues --    0.60398   0.61220   0.61665   0.64004   0.66750
 Alpha virt. eigenvalues --    0.66918   0.68061   0.68592   0.69446   0.70891
 Alpha virt. eigenvalues --    0.71598   0.73732   0.75414   0.76275   0.77459
 Alpha virt. eigenvalues --    0.79146   0.80837   0.82002   0.83262   0.83664
 Alpha virt. eigenvalues --    0.84029   0.86766   0.88358   0.89853   0.90634
 Alpha virt. eigenvalues --    0.92782   0.93869   0.95527   0.96872   0.97128
 Alpha virt. eigenvalues --    1.00153   1.00780   1.02676   1.03544   1.04908
 Alpha virt. eigenvalues --    1.07821   1.09285   1.09624   1.12223   1.14747
 Alpha virt. eigenvalues --    1.15892   1.18684   1.20200   1.22291   1.23373
 Alpha virt. eigenvalues --    1.25169   1.26731   1.28444   1.29723   1.31105
 Alpha virt. eigenvalues --    1.32355   1.34431   1.36157   1.37286   1.39375
 Alpha virt. eigenvalues --    1.40545   1.42739   1.45464   1.46552   1.48459
 Alpha virt. eigenvalues --    1.49447   1.50026   1.51694   1.52337   1.53066
 Alpha virt. eigenvalues --    1.54563   1.56805   1.57390   1.58987   1.59580
 Alpha virt. eigenvalues --    1.61239   1.61542   1.63236   1.64034   1.65240
 Alpha virt. eigenvalues --    1.66038   1.67505   1.67794   1.69857   1.73141
 Alpha virt. eigenvalues --    1.77755   1.79306   1.80719   1.82565   1.84600
 Alpha virt. eigenvalues --    1.85214   1.87132   1.90726   1.93357   1.94899
 Alpha virt. eigenvalues --    1.95831   1.96993   1.97762   1.99060   1.99428
 Alpha virt. eigenvalues --    2.01238   2.02061   2.03648   2.06107   2.08137
 Alpha virt. eigenvalues --    2.10682   2.13730   2.14005   2.14787   2.16813
 Alpha virt. eigenvalues --    2.18281   2.19410   2.20107   2.21372   2.22969
 Alpha virt. eigenvalues --    2.25049   2.26325   2.28106   2.33083   2.33678
 Alpha virt. eigenvalues --    2.35995   2.37006   2.39394   2.42607   2.42756
 Alpha virt. eigenvalues --    2.43988   2.45120   2.48644   2.49912   2.51822
 Alpha virt. eigenvalues --    2.52722   2.55141   2.56773   2.58327   2.59138
 Alpha virt. eigenvalues --    2.60483   2.61381   2.63425   2.64752   2.66551
 Alpha virt. eigenvalues --    2.68727   2.69844   2.70583   2.72010   2.73085
 Alpha virt. eigenvalues --    2.73516   2.75525   2.76011   2.79501   2.79970
 Alpha virt. eigenvalues --    2.81370   2.82778   2.85346   2.87725   2.88531
 Alpha virt. eigenvalues --    2.90598   2.91176   2.92290   2.93426   2.93809
 Alpha virt. eigenvalues --    2.95878   2.97831   2.99730   3.01068   3.02372
 Alpha virt. eigenvalues --    3.04114   3.04330   3.06279   3.07869   3.10212
 Alpha virt. eigenvalues --    3.10895   3.11523   3.12626   3.13943   3.14992
 Alpha virt. eigenvalues --    3.16477   3.17455   3.18518   3.18845   3.19798
 Alpha virt. eigenvalues --    3.21497   3.23145   3.24391   3.25170   3.26921
 Alpha virt. eigenvalues --    3.27418   3.29112   3.30473   3.31214   3.31564
 Alpha virt. eigenvalues --    3.34094   3.34577   3.35440   3.37792   3.40133
 Alpha virt. eigenvalues --    3.41092   3.42254   3.43768   3.44653   3.45703
 Alpha virt. eigenvalues --    3.47212   3.47725   3.49375   3.50542   3.52514
 Alpha virt. eigenvalues --    3.54965   3.56007   3.59310   3.61212   3.63732
 Alpha virt. eigenvalues --    3.66368   3.66880   3.69735   3.70205   3.72090
 Alpha virt. eigenvalues --    3.73625   3.77609   3.78376   3.80720   3.83652
 Alpha virt. eigenvalues --    3.86515   3.89203   3.90088   3.93487   3.97568
 Alpha virt. eigenvalues --    3.99226   4.02634   4.03152   4.08698   4.11794
 Alpha virt. eigenvalues --    4.15131   4.16091   4.17751   4.20753   4.21986
 Alpha virt. eigenvalues --    4.22748   4.23909   4.27777   4.30268   4.31528
 Alpha virt. eigenvalues --    4.33390   4.35886   4.42110   4.45457   4.47850
 Alpha virt. eigenvalues --    4.49780   4.51729   4.56123   4.58702   4.59255
 Alpha virt. eigenvalues --    4.64068   4.66552   4.69751   4.74152   4.79632
 Alpha virt. eigenvalues --    4.89959   4.95365   4.96056   5.03455   5.15849
 Alpha virt. eigenvalues --    5.17182   5.17736   5.21683   5.24091   5.27824
 Alpha virt. eigenvalues --    5.30036   5.38518   5.42312   5.43011   5.47281
 Alpha virt. eigenvalues --    5.49922   5.56088   5.64822   5.69249   5.76223
 Alpha virt. eigenvalues --    5.86500   5.98618   6.21655   6.24683   6.38002
 Alpha virt. eigenvalues --    6.44694   6.53151   6.59282   6.63824   6.75214
 Alpha virt. eigenvalues --    6.82497   6.94054   7.01313   7.10641   7.20783
 Alpha virt. eigenvalues --   22.03188  22.41886  22.46588  22.65359  22.75248
 Alpha virt. eigenvalues --   22.77736  22.93623  22.97202  23.40558  43.74584
 Alpha virt. eigenvalues --   43.85893
          Condensed to atoms (all electrons):
               1          2          3          4          5          6
     1  C    5.396085   0.318980   0.064820  -0.076194  -0.011622   0.285702
     2  C    0.318980   5.121800   0.378919   0.014305  -0.097245   0.067087
     3  C    0.064820   0.378919   5.066194   0.411411   0.025033  -0.121386
     4  C   -0.076194   0.014305   0.411411   5.084040   0.343451   0.043829
     5  C   -0.011622  -0.097245   0.025033   0.343451   5.334666   0.248045
     6  C    0.285702   0.067087  -0.121386   0.043829   0.248045   5.616026
     7  H   -0.067275   0.445798  -0.061380   0.011900  -0.003742   0.019890
     8  H    0.010785  -0.051311   0.436204  -0.060294   0.013485  -0.003809
     9  H    0.017885  -0.005149   0.013517  -0.071219   0.445678  -0.048102
    10  C    0.285040  -0.086275   0.012249  -0.000444   0.017632  -0.059663
    11  C    0.002322   0.009656  -0.067208   0.283350  -0.076155   0.013789
    12  H   -0.060653  -0.002909   0.000664   0.000625  -0.001879   0.014297
    13  H   -0.043793   0.004949  -0.000470  -0.000172   0.001353  -0.006538
    14  H   -0.019425  -0.000333  -0.000865   0.000150  -0.001063  -0.007564
    15  H    0.000254   0.000986  -0.003079  -0.058970   0.007936  -0.000954
    16  H    0.000213  -0.000583   0.004728  -0.058062  -0.002931   0.001528
    17  H   -0.000055  -0.000450  -0.002487  -0.030012  -0.004800  -0.000475
    18  C   -0.130062   0.030694  -0.002412  -0.012719  -0.010750   0.186186
    19  O   -0.020793   0.007017  -0.000843   0.000458   0.001727  -0.123180
    20  O   -0.011357   0.000837   0.000034  -0.001758   0.029701  -0.154641
    21  H    0.001333  -0.000015   0.000006  -0.000134  -0.004696   0.023198
               7          8          9         10         11         12
     1  C   -0.067275   0.010785   0.017885   0.285040   0.002322  -0.060653
     2  C    0.445798  -0.051311  -0.005149  -0.086275   0.009656  -0.002909
     3  C   -0.061380   0.436204   0.013517   0.012249  -0.067208   0.000664
     4  C    0.011900  -0.060294  -0.071219  -0.000444   0.283350   0.000625
     5  C   -0.003742   0.013485   0.445678   0.017632  -0.076155  -0.001879
     6  C    0.019890  -0.003809  -0.048102  -0.059663   0.013789   0.014297
     7  H    0.555555  -0.006445   0.000023  -0.009708  -0.000410   0.004058
     8  H   -0.006445   0.556502  -0.000065  -0.000327  -0.008982  -0.000084
     9  H    0.000023  -0.000065   0.524703   0.000132  -0.008516  -0.000009
    10  C   -0.009708  -0.000327   0.000132   5.091247   0.000254   0.387458
    11  C   -0.000410  -0.008982  -0.008516   0.000254   4.955609   0.000003
    12  H    0.004058  -0.000084  -0.000009   0.387458   0.000003   0.612875
    13  H    0.000156   0.000012   0.000017   0.451583  -0.000003  -0.029372
    14  H    0.000702   0.000017   0.000003   0.383584  -0.000009  -0.029909
    15  H   -0.000030   0.002509   0.000160  -0.000004   0.425139   0.000000
    16  H    0.000015   0.000039   0.001908  -0.000004   0.428578   0.000000
    17  H    0.000016   0.000486   0.000450  -0.000009   0.395978  -0.000001
    18  C    0.000272   0.000112  -0.012085  -0.062014  -0.002235   0.002128
    19  O    0.000159  -0.000004   0.000128  -0.090030   0.000000   0.006198
    20  O    0.000010   0.000000   0.012870  -0.002186  -0.000278   0.000058
    21  H   -0.000001   0.000000  -0.000554   0.000142   0.000003  -0.000014
              13         14         15         16         17         18
     1  C   -0.043793  -0.019425   0.000254   0.000213  -0.000055  -0.130062
     2  C    0.004949  -0.000333   0.000986  -0.000583  -0.000450   0.030694
     3  C   -0.000470  -0.000865  -0.003079   0.004728  -0.002487  -0.002412
     4  C   -0.000172   0.000150  -0.058970  -0.058062  -0.030012  -0.012719
     5  C    0.001353  -0.001063   0.007936  -0.002931  -0.004800  -0.010750
     6  C   -0.006538  -0.007564  -0.000954   0.001528  -0.000475   0.186186
     7  H    0.000156   0.000702  -0.000030   0.000015   0.000016   0.000272
     8  H    0.000012   0.000017   0.002509   0.000039   0.000486   0.000112
     9  H    0.000017   0.000003   0.000160   0.001908   0.000450  -0.012085
    10  C    0.451583   0.383584  -0.000004  -0.000004  -0.000009  -0.062014
    11  C   -0.000003  -0.000009   0.425139   0.428578   0.395978  -0.002235
    12  H   -0.029372  -0.029909   0.000000   0.000000  -0.000001   0.002128
    13  H    0.499635  -0.021142   0.000000   0.000001  -0.000001  -0.018435
    14  H   -0.021142   0.579000  -0.000001  -0.000001   0.000001   0.002590
    15  H    0.000000  -0.000001   0.564886  -0.025760  -0.028452   0.000005
    16  H    0.000001  -0.000001  -0.025760   0.559839  -0.027534  -0.000079
    17  H   -0.000001   0.000001  -0.028452  -0.027534   0.572247   0.000061
    18  C   -0.018435   0.002590   0.000005  -0.000079   0.000061   4.657976
    19  O    0.000102   0.002272  -0.000000   0.000000  -0.000000   0.638600
    20  O   -0.000134   0.000080   0.000001  -0.000010   0.000002   0.412764
    21  H    0.000101   0.000007   0.000000  -0.000002   0.000000  -0.025873
              19         20         21
     1  C   -0.020793  -0.011357   0.001333
     2  C    0.007017   0.000837  -0.000015
     3  C   -0.000843   0.000034   0.000006
     4  C    0.000458  -0.001758  -0.000134
     5  C    0.001727   0.029701  -0.004696
     6  C   -0.123180  -0.154641   0.023198
     7  H    0.000159   0.000010  -0.000001
     8  H   -0.000004   0.000000   0.000000
     9  H    0.000128   0.012870  -0.000554
    10  C   -0.090030  -0.002186   0.000142
    11  C    0.000000  -0.000278   0.000003
    12  H    0.006198   0.000058  -0.000014
    13  H    0.000102  -0.000134   0.000101
    14  H    0.002272   0.000080   0.000007
    15  H   -0.000000   0.000001   0.000000
    16  H    0.000000  -0.000010  -0.000002
    17  H   -0.000000   0.000002   0.000000
    18  C    0.638600   0.412764  -0.025873
    19  O    8.002905  -0.077476   0.003836
    20  O   -0.077476   7.912569   0.281209
    21  H    0.003836   0.281209   0.399470
 Mulliken charges:
               1
     1  C    0.057811
     2  C   -0.156758
     3  C   -0.153647
     4  C    0.176459
     5  C   -0.253823
     6  C    0.006735
     7  H    0.110436
     8  H    0.111169
     9  H    0.128226
    10  C   -0.318657
    11  C   -0.350885
    12  H    0.096464
    13  H    0.162151
    14  H    0.111905
    15  H    0.115371
    16  H    0.118117
    17  H    0.125033
    18  C    0.345279
    19  O   -0.351076
    20  O   -0.402295
    21  H    0.321985
 Sum of Mulliken charges =  -0.00000
 Mulliken charges with hydrogens summed into heavy atoms:
               1
     1  C    0.057811
     2  C   -0.046323
     3  C   -0.042478
     4  C    0.176459
     5  C   -0.125597
     6  C    0.006735
    10  C    0.051863
    11  C    0.007636
    18  C    0.345279
    19  O   -0.351076
    20  O   -0.080309
 Electronic spatial extent (au):  <R**2>=           1903.5944
 Charge=             -0.0000 electrons
 Dipole moment (field-independent basis, Debye):
    X=              2.1915    Y=             -0.5124    Z=              0.7142  Tot=              2.3612
 Quadrupole moment (field-independent basis, Debye-Ang):
   XX=            -64.0609   YY=            -59.7296   ZZ=            -66.7307
   XY=              4.2525   XZ=             -2.3334   YZ=             -1.9194
 Traceless Quadrupole moment (field-independent basis, Debye-Ang):
   XX=             -0.5538   YY=              3.7775   ZZ=             -3.2236
   XY=              4.2525   XZ=             -2.3334   YZ=             -1.9194
 Octapole moment (field-independent basis, Debye-Ang**2):
  XXX=              9.6580  YYY=             -9.4925  ZZZ=              0.2566  XYY=            -13.0658
  XXY=            -19.3530  XXZ=              6.6305  XZZ=            -10.4994  YZZ=             -5.6904
  YYZ=              5.8188  XYZ=              6.2425
 Hexadecapole moment (field-independent basis, Debye-Ang**3):
 XXXX=          -1579.7962 YYYY=           -818.3271 ZZZZ=            -86.0028 XXXY=             93.5234
 XXXZ=            -16.4943 YYYX=             59.1263 YYYZ=            -18.2185 ZZZX=             -4.7389
 ZZZY=              0.9041 XXYY=           -346.8024 XXZZ=           -275.6758 YYZZ=           -159.2354
 XXYZ=            -15.8369 YYXZ=            -16.3310 ZZXY=              3.6273
 N-N= 5.786993334396D+02 E-N=-2.322228721888D+03  KE= 4.968964342575D+02
   1 Symmetry operations used in ECPInt.
 ECPInt:  NShTT=   13041 NPrTT=   39612 LenC2=   12414 LenP2D=   29053.
 LDataN:  DoStor=T MaxTD1= 7 Len=  274
 Calling FoFJK, ICntrl=      2127 FMM=F ISym2X=0 I1Cent= 0 IOpClX= 0 NMat=1 NMatS=1 NMatT=0.
 ***** Axes restored to original set *****
 -------------------------------------------------------------------
 Center     Atomic                   Forces (Hartrees/Bohr)
 Number     Number              X              Y              Z
 -------------------------------------------------------------------
      1        6           0.027784190    0.000408266    0.003280976
      2        6          -0.017988942    0.015798075   -0.009437300
      3        6           0.014747639    0.018819777   -0.004228569
      4        6          -0.014516953    0.001947714   -0.001904665
      5        6           0.006536100   -0.018004394    0.007563087
      6        6          -0.008574338    0.029986470   -0.014796756
      7        1           0.005943441   -0.005572809    0.002981006
      8        1          -0.004342165   -0.007899196    0.002397575
      9        1          -0.004172919    0.006629786   -0.002793068
     10        6          -0.024714800   -0.018774989   -0.009997465
     11        6           0.033126868    0.005246636    0.005821331
     12        1           0.005661300   -0.014837467    0.003142542
     13        1           0.007673375   -0.001980868    0.000188032
     14        1           0.005255131    0.007227844    0.012332523
     15        1          -0.007255000   -0.008782699    0.007747564
     16        1          -0.008820748    0.010463382    0.000312855
     17        1          -0.005494600   -0.005459118   -0.013130578
     18        6           0.055235919    0.013684580    0.007252860
     19        8          -0.080285494    0.020236877   -0.014883143
     20        8           0.001991293   -0.050846905    0.018868129
     21        1           0.012210702    0.001709038   -0.000716934
 -------------------------------------------------------------------
 Cartesian Forces:  Max     0.080285494 RMS     0.018237474

 GradGradGradGradGradGradGradGradGradGradGradGradGradGradGradGradGradGrad
 Berny optimization.
 FormGI is forming the generalized inverse of G from B-inverse, IUseBI=4.
 Internal  Forces:  Max     0.078235103 RMS     0.017904022
 Search for a local minimum.
 Step number   1 out of a maximum of  107
 All quantities printed in internal units (Hartrees-Bohrs-Radians)
 Mixed Optimization -- RFO/linear search
 Second derivative matrix not updated -- first step.
 ITU=  0
     Eigenvalues ---    0.00237   0.00237   0.00237   0.00590   0.01284
     Eigenvalues ---    0.01295   0.01384   0.01519   0.02070   0.02070
     Eigenvalues ---    0.02070   0.02070   0.02070   0.02070   0.07243
     Eigenvalues ---    0.07243   0.07243   0.07243   0.16000   0.16000
     Eigenvalues ---    0.16000   0.16000   0.16000   0.16000   0.16000
     Eigenvalues ---    0.16000   0.16000   0.16000   0.22375   0.23491
     Eigenvalues ---    0.24610   0.25000   0.25000   0.25000   0.25000
     Eigenvalues ---    0.25000   0.28519   0.28519   0.28519   0.37230
     Eigenvalues ---    0.37230   0.37230   0.37230   0.37230   0.37230
     Eigenvalues ---    0.37230   0.37230   0.37230   0.40989   0.41393
     Eigenvalues ---    0.41697   0.45389   0.45389   0.45389   0.45389
     Eigenvalues ---    0.55473   0.80209
 RFO step:  Lambda=-7.95289935D-02 EMin= 2.36824200D-03
 Linear search not attempted -- first point.
 Maximum step size (   0.300) exceeded in Quadratic search.
    -- Step size scaled by   0.652
 Iteration  1 RMS(Cart)=  0.16569955 RMS(Int)=  0.00935603
 Iteration  2 RMS(Cart)=  0.01250641 RMS(Int)=  0.00014489
 Iteration  3 RMS(Cart)=  0.00004057 RMS(Int)=  0.00014337
 Iteration  4 RMS(Cart)=  0.00000000 RMS(Int)=  0.00014337
 Variable       Old X    -DE/DX   Delta X   Delta X   Delta X     New X
                                 (Linear)    (Quad)   (Total)
    R1        2.64826  -0.00608   0.00000  -0.00671  -0.00664   2.64162
    R2        2.64826   0.03071   0.00000   0.03924   0.03928   2.68755
    R3        2.91018  -0.00895   0.00000  -0.01599  -0.01599   2.89418
    R4        2.64826  -0.01202   0.00000  -0.01566  -0.01564   2.63262
    R5        2.02201   0.00856   0.00000   0.01235   0.01235   2.03435
    R6        2.64826  -0.01427   0.00000  -0.01914  -0.01919   2.62907
    R7        2.02201   0.00932   0.00000   0.01344   0.01344   2.03545
    R8        2.64826  -0.01565   0.00000  -0.01985  -0.01992   2.62835
    R9        2.91018  -0.01165   0.00000  -0.02082  -0.02082   2.88936
   R10        2.64826   0.00176   0.00000   0.00312   0.00310   2.65136
   R11        2.02201   0.00829   0.00000   0.01196   0.01196   2.03396
   R12        2.91018  -0.02041   0.00000  -0.03649  -0.03649   2.87369
   R13        2.02201   0.01534   0.00000   0.02214   0.02214   2.04415
   R14        2.02201   0.00125   0.00000   0.00181   0.00181   2.02381
   R15        2.02201   0.01480   0.00000   0.02136   0.02136   2.04336
   R16        2.02201   0.01346   0.00000   0.01942   0.01942   2.04142
   R17        2.02201   0.01335   0.00000   0.01926   0.01926   2.04127
   R18        2.02201   0.01493   0.00000   0.02155   0.02155   2.04355
   R19        2.37803  -0.07824   0.00000  -0.05785  -0.05785   2.32018
   R20        2.70231  -0.05116   0.00000  -0.06814  -0.06814   2.63417
   R21        1.81414   0.00617   0.00000   0.00635   0.00635   1.82048
    A1        2.09440  -0.02020   0.00000  -0.03701  -0.03690   2.05750
    A2        2.09440  -0.03866   0.00000  -0.07796  -0.07802   2.01638
    A3        2.09440   0.05886   0.00000   0.11497   0.11491   2.20931
    A4        2.09440   0.01622   0.00000   0.03369   0.03377   2.12816
    A5        2.09440  -0.00955   0.00000  -0.02077  -0.02081   2.07358
    A6        2.09440  -0.00667   0.00000  -0.01292  -0.01297   2.08143
    A7        2.09440   0.00478   0.00000   0.00437   0.00434   2.09873
    A8        2.09440  -0.00202   0.00000  -0.00119  -0.00117   2.09322
    A9        2.09440  -0.00276   0.00000  -0.00318  -0.00317   2.09123
   A10        2.09440  -0.00807   0.00000  -0.02105  -0.02117   2.07323
   A11        2.09440   0.00431   0.00000   0.01107   0.01113   2.10553
   A12        2.09440   0.00376   0.00000   0.00998   0.01004   2.10443
   A13        2.09440   0.01507   0.00000   0.03209   0.03199   2.12638
   A14        2.09440  -0.00692   0.00000  -0.01435  -0.01431   2.08008
   A15        2.09440  -0.00816   0.00000  -0.01773  -0.01769   2.07670
   A16        2.09440  -0.00780   0.00000  -0.01208  -0.01208   2.08232
   A17        2.09440   0.05861   0.00000   0.11427   0.11423   2.20863
   A18        2.09440  -0.05080   0.00000  -0.10218  -0.10221   1.99219
   A19        1.91063  -0.00457   0.00000  -0.01384  -0.01382   1.89681
   A20        1.91063   0.01126   0.00000   0.03266   0.03257   1.94320
   A21        1.91063   0.00259   0.00000   0.00642   0.00628   1.91691
   A22        1.91063  -0.00235   0.00000  -0.00515  -0.00509   1.90554
   A23        1.91063  -0.00224   0.00000  -0.01014  -0.01017   1.90047
   A24        1.91063  -0.00469   0.00000  -0.00995  -0.01019   1.90044
   A25        1.91063   0.00298   0.00000   0.00822   0.00818   1.91881
   A26        1.91063   0.00310   0.00000   0.00858   0.00854   1.91918
   A27        1.91063   0.00298   0.00000   0.00786   0.00782   1.91846
   A28        1.91063  -0.00263   0.00000  -0.00666  -0.00671   1.90393
   A29        1.91063  -0.00320   0.00000  -0.00897  -0.00900   1.90163
   A30        1.91063  -0.00323   0.00000  -0.00902  -0.00905   1.90158
   A31        2.09440   0.05924   0.00000   0.11720   0.11718   2.21157
   A32        2.09440  -0.04673   0.00000  -0.09245  -0.09248   2.00192
   A33        2.09440  -0.01251   0.00000  -0.02475  -0.02477   2.06962
   A34        1.91063  -0.01408   0.00000  -0.03831  -0.03831   1.87232
    D1       -0.00000   0.00130   0.00000   0.00833   0.00828   0.00827
    D2        3.14159   0.00045   0.00000   0.00287   0.00287  -3.13873
    D3        3.14159   0.00131   0.00000   0.00842   0.00831  -3.13328
    D4       -0.00000   0.00046   0.00000   0.00297   0.00291   0.00290
    D5        0.00000  -0.00177   0.00000  -0.01123  -0.01108  -0.01108
    D6       -3.14159  -0.00337   0.00000  -0.02224  -0.02271   3.11888
    D7       -3.14159  -0.00178   0.00000  -0.01132  -0.01112   3.13047
    D8        0.00000  -0.00338   0.00000  -0.02234  -0.02275  -0.02275
    D9        0.52360  -0.00485   0.00000  -0.03230  -0.03224   0.49136
   D10        2.61799  -0.00363   0.00000  -0.02708  -0.02717   2.59082
   D11       -1.57080  -0.00090   0.00000  -0.01533  -0.01522  -1.58602
   D12       -2.61799  -0.00484   0.00000  -0.03221  -0.03220  -2.65019
   D13       -0.52360  -0.00363   0.00000  -0.02699  -0.02713  -0.55073
   D14        1.57080  -0.00089   0.00000  -0.01524  -0.01518   1.55561
   D15       -0.00000  -0.00009   0.00000  -0.00064  -0.00062  -0.00062
   D16       -3.14159  -0.00045   0.00000  -0.00292  -0.00293   3.13866
   D17       -3.14159   0.00076   0.00000   0.00482   0.00481  -3.13678
   D18        0.00000   0.00039   0.00000   0.00254   0.00249   0.00250
   D19        0.00000  -0.00065   0.00000  -0.00417  -0.00421  -0.00421
   D20       -3.14159  -0.00065   0.00000  -0.00416  -0.00425   3.13735
   D21       -3.14159  -0.00029   0.00000  -0.00189  -0.00190   3.13970
   D22        0.00000  -0.00029   0.00000  -0.00188  -0.00193  -0.00193
   D23       -0.00000   0.00018   0.00000   0.00128   0.00115   0.00114
   D24        3.14159   0.00116   0.00000   0.00764   0.00747  -3.13412
   D25        3.14159   0.00018   0.00000   0.00127   0.00118  -3.14041
   D26       -0.00000   0.00117   0.00000   0.00763   0.00751   0.00751
   D27        0.52360  -0.00022   0.00000  -0.00082  -0.00080   0.52280
   D28        2.61799   0.00028   0.00000   0.00131   0.00134   2.61933
   D29       -1.57080   0.00005   0.00000   0.00033   0.00035  -1.57045
   D30       -2.61799  -0.00022   0.00000  -0.00081  -0.00084  -2.61883
   D31       -0.52360   0.00028   0.00000   0.00132   0.00130  -0.52230
   D32        1.57080   0.00005   0.00000   0.00033   0.00031   1.57111
   D33       -0.00000   0.00103   0.00000   0.00642   0.00662   0.00662
   D34       -3.14159   0.00263   0.00000   0.01744   0.01686  -3.12473
   D35        3.14159   0.00005   0.00000   0.00006   0.00031  -3.14129
   D36        0.00000   0.00165   0.00000   0.01108   0.01055   0.01055
   D37        0.00000  -0.00257   0.00000  -0.02104  -0.02118  -0.02118
   D38       -3.14159  -0.00082   0.00000  -0.00767  -0.00744   3.13416
   D39        3.14159  -0.00417   0.00000  -0.03205  -0.03229   3.10930
   D40       -0.00000  -0.00242   0.00000  -0.01869  -0.01855  -0.01855
   D41        2.61799   0.00542   0.00000   0.03770   0.03811   2.65611
   D42       -0.52360   0.00717   0.00000   0.05107   0.05066  -0.47294
         Item               Value     Threshold  Converged?
 Maximum Force            0.078235     0.000450     NO 
 RMS     Force            0.017904     0.000300     NO 
 Maximum Displacement     0.727376     0.001800     NO 
 RMS     Displacement     0.165825     0.001200     NO 
 Predicted change in Energy=-3.899635D-02
 GradGradGradGradGradGradGradGradGradGradGradGradGradGradGradGradGradGrad

                          Input orientation:                          
 ---------------------------------------------------------------------
 Center     Atomic      Atomic             Coordinates (Angstroms)
 Number     Number       Type             X           Y           Z
 ---------------------------------------------------------------------
      1          6           0        1.483181    0.190974    0.324816
      2          6           0        0.832883   -1.002596    0.651298
      3          6           0       -0.537405   -1.170229    0.464213
      4          6           0       -1.304888   -0.135272   -0.060563
      5          6           0       -0.679416    1.063334   -0.387095
      6          6           0        0.698447    1.253240   -0.202826
      7          1           0        1.412210   -1.815536    1.054327
      8          1           0       -1.005012   -2.104977    0.724525
      9          1           0       -1.268317    1.870631   -0.787029
     10          6           0        2.993191    0.211098    0.579900
     11          6           0       -2.808504   -0.311488   -0.274768
     12          1           0        3.372276   -0.798498    0.495529
     13          1           0        3.499379    0.837156   -0.126337
     14          1           0        3.191804    0.577345    1.577712
     15          1           0       -3.206196   -1.001686    0.454931
     16          1           0       -3.309723    0.639749   -0.171124
     17          1           0       -2.996284   -0.701282   -1.265844
     18          6           0        1.193803    2.636175   -0.596032
     19          8           0        2.342563    3.058920   -0.500656
     20          8           0        0.209748    3.486611   -1.097499
     21          1           0        0.483645    4.388873   -0.900111
 ---------------------------------------------------------------------
                    Distance matrix (angstroms):
                    1          2          3          4          5
     1  C    0.000000
     2  C    1.397887   0.000000
     3  C    2.440302   1.393122   0.000000
     4  C    2.833422   2.414345   1.391244   0.000000
     5  C    2.438166   2.762856   2.394515   1.390861   0.000000
     6  C    1.422189   2.415863   2.800977   2.441630   1.403042
     7  H    2.136190   1.076533   2.136738   3.383621   3.839335
     8  H    3.409144   2.144403   1.077113   2.141501   3.373412
     9  H    3.410013   3.839174   3.368482   2.133714   1.076327
    10  C    1.531536   2.478927   3.792961   4.359318   3.892227
    11  C    4.362399   3.820330   2.537996   1.528985   2.536881
    12  H    2.139364   2.552340   3.927438   4.756572   4.545510
    13  H    2.164750   3.331607   4.546863   4.902135   4.193027
    14  H    2.153700   2.986463   4.266250   4.838595   4.368409
    15  H    4.840415   4.043849   2.674124   2.152064   3.370153
    16  H    4.839347   4.531540   3.371264   2.152264   2.672935
    17  H    4.836520   4.292871   3.042876   2.152647   3.042030
    18  C    2.628822   3.863515   4.313921   3.769762   2.454880
    19  O    3.105649   4.483531   5.206812   4.868311   3.623206
    20  O    3.808652   4.857938   4.968233   4.060467   2.677229
    21  H    4.485740   5.621100   5.814425   4.936757   3.560211
                    6          7          8          9         10
     6  C    0.000000
     7  H    3.392237   0.000000
     8  H    3.878063   2.456727   0.000000
     9  H    2.142575   4.915653   4.261406   0.000000
    10  C    2.639047   2.613776   4.622850   4.773154   0.000000
    11  C    3.840866   4.673658   2.732722   2.719600   5.887547
    12  H    3.441902   2.277824   4.573837   5.504935   1.081715
    13  H    2.832701   3.575894   5.446986   4.922957   1.070956
    14  H    3.137511   3.027666   5.053320   5.211263   1.081301
    15  H    4.556706   4.727716   2.476921   3.680766   6.318137
    16  H    4.054972   5.461391   3.694238   2.462061   6.361957
    17  H    4.312911   5.104857   3.145963   3.135262   6.333483
    18  C    1.520690   4.752801   5.390471   2.585455   3.240619
    19  O    2.460143   5.200370   6.274804   3.812152   3.114644
    20  O    2.455038   5.847138   6.005103   2.211890   4.614131
    21  H    3.219400   6.570901   6.857523   3.069805   5.093334
                   11         12         13         14         15
    11  C    0.000000
    12  H    6.247606   0.000000
    13  H    6.413330   1.754491   0.000000
    14  H    6.342349   1.759725   1.750968   0.000000
    15  H    1.080274   6.581734   6.977388   6.684936   0.000000
    16  H    1.080191   6.867466   6.812109   6.732916   1.759821
    17  H    1.081403   6.608361   6.771920   6.929150   1.759366
    18  C    4.981003   4.211203   2.961885   3.599438   5.805045
    19  O    6.159884   4.114896   2.532700   3.346497   6.941930
    20  O    4.920598   5.558910   4.334101   4.951085   5.850087
    21  H    5.772581   6.099247   4.723141   5.291642   6.671521
                   16         17         18         19         20
    16  H    0.000000
    17  H    1.759267   0.000000
    18  C    4.944493   5.398528   0.000000
    19  O    6.157054   6.574795   1.227786   0.000000
    20  O    4.620548   5.276877   1.393942   2.255669   0.000000
    21  H    5.383028   6.176839   1.915395   2.320326   0.963358
                   21
    21  H    0.000000
 Stoichiometry    C9H10O2
 Framework group  C1[X(C9H10O2)]
 Deg. of freedom    57
 Full point group                 C1      NOp   1
 Largest Abelian subgroup         C1      NOp   1
 Largest concise Abelian subgroup C1      NOp   1
                         Standard orientation:                         
 ---------------------------------------------------------------------
 Center     Atomic      Atomic             Coordinates (Angstroms)
 Number     Number       Type             X           Y           Z
 ---------------------------------------------------------------------
      1          6           0       -0.306996    1.323487   -0.005221
      2          6           0        0.997836    1.824390    0.019249
      3          6           0        2.109536    0.984804    0.021948
      4          6           0        1.944666   -0.396473    0.000709
      5          6           0        0.654958   -0.916856   -0.017974
      6          6           0       -0.477384   -0.088406   -0.017312
      7          1           0        1.143936    2.890894    0.031369
      8          1           0        3.100878    1.405687    0.038379
      9          1           0        0.520010   -1.984647   -0.027437
     10          6           0       -1.418413    2.377163   -0.016336
     11          6           0        3.158558   -1.326126   -0.002104
     12          1           0       -1.040514    3.274352   -0.487880
     13          1           0       -2.277401    2.031820   -0.554689
     14          1           0       -1.711768    2.611613    0.997660
     15          1           0        3.981578   -0.858966    0.518849
     16          1           0        2.911952   -2.256098    0.488967
     17          1           0        3.460090   -1.535280   -1.019338
     18          6           0       -1.798751   -0.841059   -0.015968
     19          8           0       -2.923392   -0.349549    0.016578
     20          8           0       -1.678245   -2.229590   -0.039099
     21          1           0       -2.459729   -2.591810    0.392339
 ---------------------------------------------------------------------
 Rotational constants (GHZ):           1.5935596           0.9167704           0.5864501
 Standard basis: def2TZVP (5D, 7F)
 There are   456 symmetry adapted cartesian basis functions of A   symmetry.
 There are   401 symmetry adapted basis functions of A   symmetry.
   401 basis functions,   641 primitive gaussians,   456 cartesian basis functions
    40 alpha electrons       40 beta electrons
       nuclear repulsion energy       578.8192625632 Hartrees.
 NAtoms=   21 NActive=   21 NUniq=   21 SFac= 1.00D+00 NAtFMM=   60 NAOKFM=F Big=F
 Integral buffers will be    131072 words long.
 Raffenetti 2 integral format.
 Two-electron integral symmetry is turned on.
 One-electron integrals computed using PRISM.
   1 Symmetry operations used in ECPInt.
 ECPInt:  NShTT=   13041 NPrTT=   39612 LenC2=   12423 LenP2D=   29036.
 LDataN:  DoStor=T MaxTD1= 6 Len=  172
 NBasis=   401 RedAO= T EigKep=  6.16D-06  NBF=   401
 NBsUse=   401 1.00D-06 EigRej= -1.00D+00 NBFU=   401
 Initial guess from the checkpoint file:  "C6H4-CH3-2.chk"
 B after Tr=     0.000000   -0.000000   -0.000000
         Rot=    1.000000   -0.000671   -0.000017   -0.000328 Ang=  -0.09 deg.
 ExpMin= 9.52D-02 ExpMax= 2.70D+04 ExpMxC= 9.22D+02 IAcc=2 IRadAn=         4 AccDes= 0.00D+00
 Harris functional with IExCor=  402 and IRadAn=       4 diagonalized for initial guess.
 HarFok:  IExCor=  402 AccDes= 0.00D+00 IRadAn=         4 IDoV= 1 UseB2=F ITyADJ=14
 ICtDFT=  3500011 ScaDFX=  1.000000  1.000000  1.000000  1.000000
 FoFCou: FMM=F IPFlag=           0 FMFlag=      100000 FMFlg1=           0
         NFxFlg=           0 DoJE=T BraDBF=F KetDBF=T FulRan=T
         wScrn=  0.000000 ICntrl=       500 IOpCl=  0 I1Cent=   200000004 NGrid=           0
         NMat0=    1 NMatS0=      1 NMatT0=    0 NMatD0=    1 NMtDS0=    0 NMtDT0=    0
 Petite list used in FoFCou.
 Requested convergence on RMS density matrix=1.00D-08 within 128 cycles.
 Requested convergence on MAX density matrix=1.00D-06.
 Requested convergence on             energy=1.00D-06.
 No special actions if energy rises.
 Integral accuracy reduced to 1.0D-05 until final iterations.
 Problem detected with inexpensive integrals.
 Switching to full accuracy and repeating last cycle.
 SCF Done:  E(RB3LYP) =  -499.642876323     A.U. after   16 cycles
            NFock= 16  Conv=0.59D-08     -V/T= 2.0053
   1 Symmetry operations used in ECPInt.
 ECPInt:  NShTT=   13041 NPrTT=   39612 LenC2=   12423 LenP2D=   29036.
 LDataN:  DoStor=T MaxTD1= 7 Len=  274
 Calling FoFJK, ICntrl=      2127 FMM=F ISym2X=0 I1Cent= 0 IOpClX= 0 NMat=1 NMatS=1 NMatT=0.
 ***** Axes restored to original set *****
 -------------------------------------------------------------------
 Center     Atomic                   Forces (Hartrees/Bohr)
 Number     Number              X              Y              Z
 -------------------------------------------------------------------
      1        6           0.010387354    0.002293957   -0.000697758
      2        6          -0.010505694    0.007725680   -0.005321787
      3        6           0.007891935    0.007049326   -0.000997214
      4        6          -0.013217475   -0.000350319   -0.001185639
      5        6           0.002047585   -0.010610480    0.004515039
      6        6          -0.004536914    0.012730949   -0.007964828
      7        1           0.002818006   -0.002975478    0.001446753
      8        1          -0.001688676   -0.004050750    0.001541768
      9        1          -0.000724509    0.001619676   -0.000369071
     10        6          -0.021496214    0.002761873   -0.005922797
     11        6           0.020985602    0.003068894    0.003679092
     12        1           0.002635442   -0.004476916    0.001096682
     13        1           0.006326820    0.007977350   -0.005501241
     14        1           0.003292895    0.003410684    0.005938565
     15        1          -0.004375636   -0.004232100    0.003177603
     16        1          -0.004921324    0.004674609   -0.000331242
     17        1          -0.003638881   -0.002598447   -0.006211848
     18        6           0.029043704    0.011909206    0.002100121
     19        8          -0.029598160   -0.016539942    0.002765274
     20        8           0.001678207   -0.021600539    0.013132600
     21        1           0.007595931    0.002212767   -0.004890074
 -------------------------------------------------------------------
 Cartesian Forces:  Max     0.029598160 RMS     0.009123171

 GradGradGradGradGradGradGradGradGradGradGradGradGradGradGradGradGradGrad
 Berny optimization.
 Using GEDIIS/GDIIS optimizer.
 FormGI is forming the generalized inverse of G from B-inverse, IUseBI=4.
 Internal  Forces:  Max     0.033173109 RMS     0.007344499
 Search for a local minimum.
 Step number   2 out of a maximum of  107
 All quantities printed in internal units (Hartrees-Bohrs-Radians)
 Mixed Optimization -- RFO/linear search
 Update second derivatives using D2CorX and points    1    2
 DE= -1.92D-02 DEPred=-3.90D-02 R= 4.93D-01
 Trust test= 4.93D-01 RLast= 3.19D-01 DXMaxT set to 3.00D-01
 ITU=  0  0
 Use linear search instead of GDIIS.
     Eigenvalues ---    0.00237   0.00237   0.00241   0.00550   0.01261
     Eigenvalues ---    0.01288   0.01373   0.01507   0.02070   0.02070
     Eigenvalues ---    0.02070   0.02070   0.02070   0.02086   0.07005
     Eigenvalues ---    0.07142   0.07153   0.07294   0.15826   0.16000
     Eigenvalues ---    0.16000   0.16000   0.16000   0.16000   0.16000
     Eigenvalues ---    0.16000   0.16000   0.16026   0.22352   0.23155
     Eigenvalues ---    0.23907   0.24697   0.24999   0.25000   0.25000
     Eigenvalues ---    0.27557   0.28517   0.28519   0.36027   0.36956
     Eigenvalues ---    0.37230   0.37230   0.37230   0.37230   0.37230
     Eigenvalues ---    0.37230   0.37230   0.39304   0.40291   0.41290
     Eigenvalues ---    0.44566   0.45295   0.45389   0.45389   0.55442
     Eigenvalues ---    0.68805   0.76876
 RFO step:  Lambda=-1.42410502D-02 EMin= 2.36818159D-03
 Quartic linear search produced a step of -0.10304.
 Iteration  1 RMS(Cart)=  0.06810003 RMS(Int)=  0.00553595
 Iteration  2 RMS(Cart)=  0.00720404 RMS(Int)=  0.00016149
 Iteration  3 RMS(Cart)=  0.00012129 RMS(Int)=  0.00011479
 Iteration  4 RMS(Cart)=  0.00000004 RMS(Int)=  0.00011479
 Variable       Old X    -DE/DX   Delta X   Delta X   Delta X     New X
                                 (Linear)    (Quad)   (Total)
    R1        2.64162  -0.00334   0.00068  -0.00973  -0.00907   2.63256
    R2        2.68755  -0.01837  -0.00405  -0.01996  -0.02402   2.66353
    R3        2.89418  -0.00972   0.00165  -0.03492  -0.03327   2.86092
    R4        2.63262  -0.00293   0.00161  -0.01166  -0.01006   2.62256
    R5        2.03435   0.00431  -0.00127   0.01477   0.01350   2.04785
    R6        2.62907   0.00034   0.00198  -0.00616  -0.00418   2.62489
    R7        2.03545   0.00462  -0.00138   0.01593   0.01454   2.04999
    R8        2.62835  -0.00169   0.00205  -0.01051  -0.00845   2.61990
    R9        2.88936  -0.00807   0.00214  -0.03185  -0.02971   2.85965
   R10        2.65136   0.00085  -0.00032   0.00268   0.00237   2.65373
   R11        2.03396   0.00175  -0.00123   0.00874   0.00751   2.04147
   R12        2.87369  -0.02239   0.00376  -0.08033  -0.07657   2.79712
   R13        2.04415   0.00502  -0.00228   0.02027   0.01799   2.06213
   R14        2.02381   0.01128  -0.00019   0.02665   0.02646   2.05027
   R15        2.04336   0.00724  -0.00220   0.02507   0.02287   2.06623
   R16        2.04142   0.00646  -0.00200   0.02251   0.02051   2.06194
   R17        2.04127   0.00637  -0.00198   0.02224   0.02025   2.06152
   R18        2.04355   0.00726  -0.00222   0.02520   0.02298   2.06653
   R19        2.32018  -0.03317   0.00596  -0.06042  -0.05446   2.26572
   R20        2.63417  -0.02134   0.00702  -0.07189  -0.06487   2.56930
   R21        1.82048   0.00323  -0.00065   0.00765   0.00699   1.82748
    A1        2.05750  -0.00149   0.00380  -0.02183  -0.01806   2.03943
    A2        2.01638   0.01591   0.00804   0.02601   0.03404   2.05042
    A3        2.20931  -0.01442  -0.01184  -0.00419  -0.01604   2.19327
    A4        2.12816   0.00119  -0.00348   0.01566   0.01216   2.14033
    A5        2.07358  -0.00118   0.00214  -0.01214  -0.00999   2.06359
    A6        2.08143  -0.00001   0.00134  -0.00351  -0.00216   2.07927
    A7        2.09873   0.00137  -0.00045   0.00895   0.00851   2.10724
    A8        2.09322  -0.00111   0.00012  -0.00633  -0.00621   2.08701
    A9        2.09123  -0.00025   0.00033  -0.00263  -0.00230   2.08892
   A10        2.07323  -0.00564   0.00218  -0.02397  -0.02178   2.05145
   A11        2.10553   0.00319  -0.00115   0.01343   0.01226   2.11778
   A12        2.10443   0.00245  -0.00103   0.01054   0.00948   2.11391
   A13        2.12638  -0.00027  -0.00330   0.01152   0.00825   2.13464
   A14        2.08008   0.00049   0.00147  -0.00338  -0.00192   2.07816
   A15        2.07670  -0.00022   0.00182  -0.00813  -0.00632   2.07038
   A16        2.08232   0.00484   0.00124   0.00966   0.01091   2.09323
   A17        2.20863  -0.02840  -0.01177  -0.05192  -0.06370   2.14493
   A18        1.99219   0.02356   0.01053   0.04230   0.05282   2.04501
   A19        1.89681   0.00155   0.00142   0.00667   0.00800   1.90481
   A20        1.94320   0.00130  -0.00336   0.01680   0.01338   1.95658
   A21        1.91691   0.00168  -0.00065   0.00794   0.00730   1.92420
   A22        1.90554  -0.00016   0.00052   0.00262   0.00299   1.90854
   A23        1.90047  -0.00155   0.00105  -0.00999  -0.00896   1.89150
   A24        1.90044  -0.00288   0.00105  -0.02452  -0.02344   1.87700
   A25        1.91881   0.00233  -0.00084   0.01502   0.01407   1.93289
   A26        1.91918   0.00238  -0.00088   0.01536   0.01437   1.93355
   A27        1.91846   0.00232  -0.00081   0.01370   0.01282   1.93128
   A28        1.90393  -0.00201   0.00069  -0.01099  -0.01042   1.89350
   A29        1.90163  -0.00256   0.00093  -0.01679  -0.01594   1.88570
   A30        1.90158  -0.00260   0.00093  -0.01707  -0.01621   1.88537
   A31        2.21157  -0.00560  -0.01207   0.02498   0.01239   2.22396
   A32        2.00192  -0.00479   0.00953  -0.05030  -0.04129   1.96063
   A33        2.06962   0.01040   0.00255   0.02600   0.02803   2.09765
   A34        1.87232  -0.00612   0.00395  -0.04408  -0.04014   1.83219
    D1        0.00827  -0.00008  -0.00085  -0.00198  -0.00285   0.00542
    D2       -3.13873   0.00005  -0.00030   0.00169   0.00144  -3.13729
    D3       -3.13328  -0.00041  -0.00086  -0.01326  -0.01429   3.13562
    D4        0.00290  -0.00029  -0.00030  -0.00959  -0.01000  -0.00709
    D5       -0.01108   0.00004   0.00114   0.00042   0.00157  -0.00951
    D6        3.11888   0.00025   0.00234   0.00537   0.00763   3.12652
    D7        3.13047   0.00041   0.00115   0.01309   0.01405  -3.13866
    D8       -0.02275   0.00062   0.00234   0.01805   0.02012  -0.00263
    D9        0.49136  -0.00048   0.00332   0.00884   0.01218   0.50354
   D10        2.59082   0.00113   0.00280   0.02684   0.02978   2.62060
   D11       -1.58602  -0.00051   0.00157   0.01231   0.01392  -1.57210
   D12       -2.65019  -0.00085   0.00332  -0.00357  -0.00038  -2.65057
   D13       -0.55073   0.00077   0.00280   0.01443   0.01722  -0.53351
   D14        1.55561  -0.00088   0.00156  -0.00011   0.00137   1.55698
   D15       -0.00062   0.00016   0.00006   0.00363   0.00374   0.00312
   D16        3.13866   0.00009   0.00030   0.00205   0.00242   3.14108
   D17       -3.13678   0.00003  -0.00050  -0.00003  -0.00056  -3.13734
   D18        0.00250  -0.00003  -0.00026  -0.00161  -0.00189   0.00061
   D19       -0.00421  -0.00017   0.00043  -0.00358  -0.00313  -0.00734
   D20        3.13735  -0.00047   0.00044  -0.01344  -0.01295   3.12440
   D21        3.13970  -0.00011   0.00020  -0.00200  -0.00181   3.13789
   D22       -0.00193  -0.00040   0.00020  -0.01186  -0.01162  -0.01355
   D23        0.00114   0.00017  -0.00012   0.00204   0.00194   0.00309
   D24       -3.13412   0.00015  -0.00077   0.00102   0.00019  -3.13394
   D25       -3.14041   0.00046  -0.00012   0.01189   0.01174  -3.12867
   D26        0.00751   0.00045  -0.00077   0.01086   0.00998   0.01749
   D27        0.52280  -0.00007   0.00008   0.00319   0.00332   0.52612
   D28        2.61933   0.00042  -0.00014   0.00875   0.00871   2.62804
   D29       -1.57045   0.00017  -0.00004   0.00591   0.00594  -1.56451
   D30       -2.61883  -0.00037   0.00009  -0.00684  -0.00685  -2.62568
   D31       -0.52230   0.00012  -0.00013  -0.00128  -0.00146  -0.52376
   D32        1.57111  -0.00013  -0.00003  -0.00413  -0.00423   1.56688
   D33        0.00662  -0.00008  -0.00068  -0.00037  -0.00112   0.00550
   D34       -3.12473   0.00006  -0.00174  -0.00414  -0.00611  -3.13084
   D35       -3.14129  -0.00006  -0.00003   0.00068   0.00064  -3.14064
   D36        0.01055   0.00008  -0.00109  -0.00309  -0.00435   0.00620
   D37       -0.02118   0.00013   0.00218   0.01859   0.02075  -0.00043
   D38        3.13416  -0.00109   0.00077  -0.04120  -0.04037   3.09378
   D39        3.10930   0.00024   0.00333   0.02318   0.02645   3.13575
   D40       -0.01855  -0.00097   0.00191  -0.03662  -0.03468  -0.05323
   D41        2.65611   0.00749  -0.00393   0.24490   0.24104   2.89715
   D42       -0.47294   0.00650  -0.00522   0.19026   0.18497  -0.28797
         Item               Value     Threshold  Converged?
 Maximum Force            0.033173     0.000450     NO 
 RMS     Force            0.007344     0.000300     NO 
 Maximum Displacement     0.347282     0.001800     NO 
 RMS     Displacement     0.071219     0.001200     NO 
 Predicted change in Energy=-8.981942D-03
 GradGradGradGradGradGradGradGradGradGradGradGradGradGradGradGradGradGrad

                          Input orientation:                          
 ---------------------------------------------------------------------
 Center     Atomic      Atomic             Coordinates (Angstroms)
 Number     Number       Type             X           Y           Z
 ---------------------------------------------------------------------
      1          6           0        1.472119    0.209457    0.317720
      2          6           0        0.824766   -0.985789    0.622706
      3          6           0       -0.540541   -1.163104    0.448105
      4          6           0       -1.331639   -0.136345   -0.051233
      5          6           0       -0.707479    1.063473   -0.356098
      6          6           0        0.672021    1.257937   -0.179439
      7          1           0        1.417931   -1.805659    1.010416
      8          1           0       -0.993517   -2.115672    0.701549
      9          1           0       -1.300491    1.881105   -0.739319
     10          6           0        2.964804    0.277356    0.561180
     11          6           0       -2.817786   -0.321929   -0.267782
     12          1           0        3.390503   -0.721729    0.454413
     13          1           0        3.460237    0.954616   -0.126568
     14          1           0        3.167038    0.631587    1.575652
     15          1           0       -3.226602   -1.035990    0.448842
     16          1           0       -3.346967    0.625083   -0.152808
     17          1           0       -3.016609   -0.700611   -1.274234
     18          6           0        1.217135    2.589059   -0.528537
     19          8           0        2.355937    2.954738   -0.445266
     20          8           0        0.269108    3.417022   -1.042610
     21          1           0        0.667419    4.297936   -1.019321
 ---------------------------------------------------------------------
                    Distance matrix (angstroms):
                    1          2          3          4          5
     1  C    0.000000
     2  C    1.393089   0.000000
     3  C    2.439616   1.387800   0.000000
     4  C    2.848994   2.413676   1.389031   0.000000
     5  C    2.435984   2.739581   2.373237   1.386392   0.000000
     6  C    1.409480   2.387693   2.779489   2.444405   1.404295
     7  H    2.131539   1.083675   2.136513   3.387307   3.823172
     8  H    3.410706   2.142196   1.084808   2.144468   3.362648
     9  H    3.405746   3.819805   3.354803   2.131792   1.080298
    10  C    1.513932   2.485776   3.791458   4.359544   3.865881
    11  C    4.362164   3.808131   2.530991   1.513264   2.525972
    12  H    2.136817   2.584774   3.955750   4.785079   4.542832
    13  H    2.169162   3.357424   4.563027   4.915074   4.175450
    14  H    2.152519   3.001708   4.270647   4.845057   4.350870
    15  H    4.862748   4.055407   2.689067   2.156460   3.376634
    16  H    4.859808   4.538688   3.381529   2.156766   2.683359
    17  H    4.848837   4.293700   3.051436   2.157139   3.047465
    18  C    2.538439   3.776090   4.256992   3.761901   2.461968
    19  O    2.983261   4.360368   5.113152   4.827865   3.601299
    20  O    3.685947   4.739914   4.884190   4.021398   2.638980
    21  H    4.376172   5.535229   5.782340   4.959463   3.576585
                    6          7          8          9         10
     6  C    0.000000
     7  H    3.370128   0.000000
     8  H    3.864117   2.450835   0.000000
     9  H    2.143037   4.903430   4.259643   0.000000
    10  C    2.601328   2.633169   4.627590   4.738781   0.000000
    11  C    3.831780   4.666535   2.735887   2.716227   5.872365
    12  H    3.422133   2.318422   4.606927   5.495923   1.091234
    13  H    2.805164   3.617024   5.472510   4.888596   1.084958
    14  H    3.114124   3.052709   5.061789   5.184516   1.093404
    15  H    4.566848   4.741250   2.493240   3.692028   6.330166
    16  H    4.068597   5.474108   3.712196   2.471771   6.361537
    17  H    4.317462   5.109394   3.162122   3.145862   6.332650
    18  C    1.480170   4.660713   5.341778   2.623751   3.096095
    19  O    2.405280   5.065594   6.184100   3.822123   2.924385
    20  O    2.359884   5.728098   5.936920   2.216905   4.438065
    21  H    3.153889   6.475876   6.845032   3.129240   4.892956
                   11         12         13         14         15
    11  C    0.000000
    12  H    6.262927   0.000000
    13  H    6.408048   1.775538   0.000000
    14  H    6.334474   1.771603   1.757233   0.000000
    15  H    1.091130   6.624565   7.000530   6.702921   0.000000
    16  H    1.090910   6.897545   6.815226   6.739428   1.770773
    17  H    1.093561   6.636245   6.782805   6.937874   1.767927
    18  C    4.982212   4.080569   2.804370   3.472958   5.817478
    19  O    6.126619   3.923794   2.306845   3.184184   6.920266
    20  O    4.910095   5.395688   4.133507   4.797077   5.854377
    21  H    5.835633   5.897806   4.446867   5.140438   6.765328
                   16         17         18         19         20
    16  H    0.000000
    17  H    1.767540   0.000000
    18  C    4.982911   5.413186   0.000000
    19  O    6.167329   6.550803   1.198969   0.000000
    20  O    4.654317   5.272996   1.359613   2.219321   0.000000
    21  H    5.509627   6.214701   1.860998   2.232670   0.967059
                   21
    21  H    0.000000
 Stoichiometry    C9H10O2
 Framework group  C1[X(C9H10O2)]
 Deg. of freedom    57
 Full point group                 C1      NOp   1
 Largest Abelian subgroup         C1      NOp   1
 Largest concise Abelian subgroup C1      NOp   1
                         Standard orientation:                         
 ---------------------------------------------------------------------
 Center     Atomic      Atomic             Coordinates (Angstroms)
 Number     Number       Type             X           Y           Z
 ---------------------------------------------------------------------
      1          6           0       -0.377941    1.273770   -0.008952
[...]
 113501,-0.00025193,-0.00025262,0.00139725,0.00032482,0.00029882,-0.002
 77262,0.58359055,-0.02175416,0.00253143,-0.07551347,0.00349593,0.00142
 987,0.00873642,-0.00104023,0.00318320,0.00714947,0.00014753,-0.0004579
 6,-0.00086947,-0.00088444,0.00330692,0.00490572,-0.00999549,-0.0016656
 7,-0.00018792,0.00143387,-0.00075558,-0.00387903,0.00039187,-0.0000424
 3,-0.00039081,-0.00047800,0.00002450,0.00046096,-0.00899423,-0.0138967
 1,0.53775738,-0.00102333,-0.00177743,0.00050297,0.00384001,0.00279397,
 -0.00102564,-0.02638650,0.00129875,-0.00529874,-0.20335760,-0.01768225
 ,-0.01763596,-0.01794923,-0.00668789,-0.00203478,0.00120201,-0.0000011
 5,-0.00115921,-0.00018992,-0.00017428,-0.00001680,0.00103224,-0.001127
 63,0.00086933,0.00131108,0.00203185,0.00042042,0.00009449,0.00012891,0
 .00011538,0.48278114,-0.00057999,-0.00119152,-0.00005679,0.00299395,-0
 .00371556,0.00304359,0.02547864,0.00792041,0.00288711,-0.01126895,-0.0
 8934565,0.00350460,-0.03049866,-0.00206702,-0.00315659,-0.00062603,-0.
 00268859,0.00289789,0.00132872,0.00015845,0.00023227,0.00032645,0.0009
 9538,-0.00086764,-0.00110492,0.00040975,-0.00157220,0.00009883,-0.0000
 6025,-0.00019478,-0.01810538,0.57134425,0.00016185,-0.00026166,-0.0009
 4516,-0.00107588,0.00299373,0.00428709,-0.01205439,-0.00121302,0.00108
 384,-0.01937905,0.00242412,-0.07395336,0.00463268,0.00088277,0.0056772
 4,-0.00098421,0.00302138,0.00708498,-0.00043441,-0.00002086,0.00012107
 ,0.00046412,-0.00109892,-0.00188357,0.00130217,-0.00105570,-0.00406058
 ,0.00012575,-0.00019080,-0.00073851,-0.00354208,-0.01375436,0.53637137
 ,-0.01488173,0.03014960,-0.01064948,0.00112603,0.00272405,-0.00054780,
 -0.00010734,-0.00011824,0.00006277,0.00017254,-0.00023214,0.00007885,-
 0.00007249,0.00167795,-0.00053488,-0.00517294,-0.00261646,-0.00041405,
 -0.00010959,-0.00134825,0.00029226,0.00002477,0.00000221,0.00001043,-0
 .00050810,-0.00010489,-0.00003712,-0.07903298,0.07742983,-0.02662292,-
 0.00001359,-0.00013000,0.00003039,0.09025030,-0.00110587,0.00143932,-0
 .00108694,-0.00289081,0.00024693,-0.00059677,0.00025748,0.00045008,-0.
 00016143,-0.00021853,0.00028446,-0.00009105,-0.00040579,-0.00010697,0.
 00004927,-0.00088355,0.00090160,0.00004602,-0.00020970,0.00072072,-0.0
 0012728,0.00007699,0.00000920,-0.00000092,-0.00000234,0.00000811,-0.00
 003481,0.08264200,-0.25359659,0.07100749,-0.00002931,0.00006455,-0.000
 01718,-0.08683972,0.27598912,-0.00190607,0.00419940,-0.00327557,0.0010
 2242,0.00035269,-0.00006451,-0.00004253,-0.00022474,-0.00022649,0.0000
 7486,-0.00009327,0.00013046,0.00004798,0.00040170,0.00021060,-0.000898
 82,-0.00024631,0.00151761,-0.00002627,-0.00031987,0.00047716,-0.000010
 48,-0.00001355,-0.00003857,-0.00006580,-0.00005212,-0.00011141,-0.0280
 8111,0.07012595,-0.07403533,0.00000246,-0.00003433,0.00002974,0.031824
 99,-0.07909923,0.07319049,-0.01717831,-0.00967630,0.02665129,-0.003095
 29,0.00111702,-0.00091946,-0.00001076,-0.00094039,-0.00117088,0.000005
 85,0.00050516,0.00005476,-0.00060007,-0.00101512,-0.00101063,0.0014401
 9,0.00013799,-0.00048373,-0.00011933,-0.00000192,0.00049793,-0.0002829
 3,-0.00005724,0.00004463,-0.00000741,-0.00000079,-0.00007272,-0.104165
 04,-0.03145942,0.10576774,-0.00005801,-0.00006071,0.00011275,0.0058746
 6,0.00209540,-0.01074162,0.11574388,-0.00445311,-0.00207102,0.00018276
 ,-0.00064387,0.00036408,-0.00016315,-0.00056374,-0.00019693,-0.0005803
 1,0.00020710,-0.00030955,0.00011999,-0.00003954,0.00021052,0.00009792,
 0.00054536,-0.00164932,0.00034593,-0.00014163,0.00042792,0.00039596,-0
 .00005887,-0.00001414,0.00000150,0.00000796,0.00001646,-0.00000124,-0.
 03082722,-0.06145926,0.06368886,-0.00004389,0.00007567,0.00004059,-0.0
 1368546,-0.00659470,0.02335284,0.03761978,0.06606730,-0.00225361,-0.00
 241709,0.00761144,-0.00082808,-0.00065803,-0.00049860,0.00008686,-0.00
 031410,-0.00030765,-0.00012021,-0.00006264,-0.00001749,0.00032190,-0.0
 0022749,-0.00025114,-0.00018020,0.00118480,0.00081846,-0.00003647,-0.0
 0012728,0.00007141,-0.00004999,-0.00000172,0.00008172,0.00006871,0.000
 02039,-0.00001198,0.10494782,0.06164307,-0.23152849,0.00001634,-0.0000
 0293,0.00001869,0.00260609,0.00153100,-0.00681690,-0.11380664,-0.06795
 709,0.25151899,-0.00888269,-0.02410861,-0.02248715,-0.00331777,0.00101
 137,-0.00060360,-0.00049954,-0.00023212,0.00150978,0.00004227,0.000342
 78,-0.00026790,-0.00085038,-0.00039250,0.00119620,0.00126320,0.0005098
 7,0.00038108,0.00003152,-0.00028192,-0.00046541,-0.00025781,-0.0001067
 7,-0.00011424,-0.00000760,0.00004393,0.00005970,-0.05645896,-0.0375791
 8,-0.04122352,-0.00002044,-0.00010882,-0.00008591,0.00195065,0.0072605
 2,0.00892366,0.00337797,0.01054764,0.01058582,0.06464782,-0.00448929,-
 0.00082863,0.00056957,-0.00030380,0.00058545,-0.00052350,-0.00064492,0
 .00010073,0.00024120,0.00024606,-0.00020308,0.00007502,-0.00017849,0.0
 0009540,-0.00028216,0.00042658,-0.00158195,0.00134847,0.00003534,0.000
 18572,-0.00053224,-0.00005936,0.00000023,0.00002236,-0.00002704,0.0000
 0146,-0.00000958,-0.03603106,-0.17333095,-0.12913123,-0.00003234,0.000
 03050,-0.00007390,-0.00555140,-0.01785255,-0.01889333,0.00190104,0.005
 06034,0.00575507,0.04298410,0.18819328,-0.00053153,-0.00103185,-0.0019
 2232,0.00016674,0.00049219,-0.00049803,0.00026232,-0.00001839,-0.00011
 679,0.00001608,0.00032471,-0.00015977,-0.00046841,-0.00015751,0.000114
 09,-0.00001377,0.00045470,0.00092856,0.00001910,-0.00003922,0.00016277
 ,-0.00003249,0.00001775,0.00004236,-0.00006430,-0.00002072,0.00000345,
 -0.04101477,-0.12745038,-0.16742149,-0.00001318,-0.00004710,0.00002450
 ,0.00357428,0.00776313,0.00837216,-0.00512968,-0.01937476,-0.02068050,
 0.04326692,0.14036543,0.18054571,0.00007073,-0.00005568,0.00028731,-0.
 00007947,-0.00052822,-0.00087443,0.00151246,-0.00139337,-0.00020934,-0
 .01705466,-0.01066852,0.02656683,-0.00285478,0.00145948,-0.00038783,-0
 .00034241,-0.00085283,-0.00129344,-0.00001720,0.00003721,0.00000749,-0
 .00007260,0.00084868,0.00033515,-0.00009230,0.00008073,0.00053652,-0.0
 0008722,-0.00007458,0.00010755,-0.09329109,-0.02985101,0.09631972,-0.0
 0003938,0.00002698,-0.00001733,-0.00006681,0.00002491,-0.00001122,-0.0
 0004946,0.00003711,-0.00002974,0.10422240,0.00015197,0.00073103,-0.000
 25163,-0.00104023,-0.00060085,-0.00034757,0.00190274,0.00019566,0.0003
 0703,-0.00369686,-0.00222180,0.00282641,-0.00167439,-0.00027399,-0.000
 21209,0.00035200,-0.00052617,-0.00042982,-0.00002079,0.00000032,0.0000
 1832,0.00005769,-0.00000028,0.00034291,-0.00009861,0.00040220,0.000401
 25,-0.00006064,0.00005928,0.00014434,-0.02944514,-0.06618977,0.0638842
 5,0.00000248,0.00000096,0.00000506,-0.00001618,-0.00000051,-0.00001293
 ,0.00004434,-0.00000816,0.00001187,0.03584890,0.06815953,-0.00017036,-
 0.00057226,0.00018016,0.00080648,0.00017978,0.00019740,-0.00088830,0.0
 0052947,0.00070438,-0.00253602,-0.00217011,0.00720888,-0.00019442,-0.0
 0017558,-0.00011418,-0.00037518,-0.00013417,-0.00037638,0.00005347,0.0
 0000781,-0.00000999,0.00027491,-0.00021860,-0.00024871,-0.00004478,-0.
 00012744,0.00008207,0.00004849,-0.00001234,-0.00007498,0.09539427,0.06
 409113,-0.23516274,-0.00000009,-0.00000390,0.00000015,0.00001406,-0.00
 000818,0.00001075,-0.00002568,0.00000206,0.00000017,-0.10437506,-0.069
 87740,0.25544824,0.00017775,-0.00026120,0.00010415,0.00001504,0.001693
 32,-0.00055279,-0.00632898,-0.00263769,-0.00055072,-0.01446601,0.02879
 480,-0.01014083,0.00223247,0.00241146,-0.00030486,-0.00035159,-0.00027
 132,0.00004707,-0.00049065,-0.00004533,-0.00004469,0.00004264,0.000004
 53,0.00005126,0.00004010,-0.00124352,0.00030705,-0.00001938,-0.0001082
 9,0.00002669,-0.09563697,0.09341083,-0.03398141,0.00003449,-0.00001455
 ,0.00000909,-0.00003179,-0.00000219,0.00000260,-0.00002943,-0.00000382
 ,-0.00001128,0.00636682,-0.01271700,0.00308767,0.10629166,-0.00000312,
 0.00014551,-0.00004038,-0.00041524,0.00019824,-0.00000308,-0.00081384,
 0.00028014,0.00014837,-0.00262935,0.00422942,-0.00202485,-0.00172321,0
 .00057073,-0.00044396,0.00025440,0.00037903,-0.00011313,-0.00001461,-0
 .00000389,-0.00004450,-0.00019634,0.00022598,-0.00016739,0.00013532,0.
 00041544,-0.00001419,-0.00001660,0.00005094,-0.00001652,0.09800781,-0.
 23964214,0.06972974,-0.00001030,-0.00001940,0.00000482,0.00001882,0.00
 000140,-0.00000137,0.00001710,0.00000052,0.00000683,0.00281379,-0.0070
 2727,0.00195415,-0.10444346,0.25887780,0.00003120,-0.00008013,0.000027
 67,0.00003540,0.00035315,0.00035229,-0.00106653,-0.00015484,0.00118635
 ,-0.00147809,0.00328035,-0.00268015,0.00085417,0.00024886,0.00008572,-
 0.00009474,-0.00020579,-0.00015500,-0.00005310,-0.00004968,-0.00014947
 ,0.00010569,-0.00013597,-0.00020072,-0.00007968,-0.00023996,0.00035366
 ,0.00000039,-0.00003073,0.00001410,-0.03524537,0.06895003,-0.07194059,
 0.00000801,0.00000414,0.00000463,-0.00001015,0.00000523,-0.00000107,-0
 .00000974,-0.00000706,-0.00000218,-0.01261066,0.02390546,-0.00788947,0
 .03911617,-0.07656850,0.07306742,0.00010547,-0.00029528,-0.00015492,-0
 .00021200,-0.00001512,0.00092901,0.00115805,-0.00088745,0.00094362,-0.
 00886751,-0.02471060,-0.02219489,-0.00273864,0.00109043,-0.00119799,-0
 .00089045,-0.00009645,0.00143902,0.00000246,0.00002940,-0.00002454,0.0
 0016488,0.00049384,-0.00058697,0.00007668,-0.00023708,-0.00052994,-0.0
 0004774,-0.00011354,-0.00006167,-0.05220596,-0.03000495,-0.03190880,-0
 .00003803,0.00002597,-0.00001080,-0.00005401,0.00003983,-0.00001148,-0
 .00005861,0.00001732,-0.00002245,0.00216189,0.01048664,0.00896417,0.00
 205456,0.00897771,0.01048051,0.05969969,0.00020228,0.00095040,-0.00016
 720,-0.00144406,-0.00044114,0.00030583,0.00204636,0.00004919,0.0008680
 7,-0.00301246,-0.00228906,-0.00103266,-0.00155749,-0.00007577,-0.00033
 495,0.00031339,-0.00020647,0.00061195,-0.00003729,-0.00001502,-0.00003
 026,0.00006362,-0.00008186,-0.00047636,0.00007480,0.00017037,-0.000516
 54,-0.00002338,-0.00005034,-0.00018832,-0.02923851,-0.17604046,-0.1253
 9883,0.00000036,0.00000274,-0.00000516,0.00004599,-0.00000396,0.000010
 59,-0.00003001,0.00001163,0.00000294,0.00224694,0.00735054,0.00652279,
 -0.00474124,-0.01861576,-0.01930337,0.03515825,0.18934389,0.00010901,0
 .00003134,-0.00006682,-0.00022059,0.00011409,0.00016230,-0.00011881,-0
 .00040031,0.00118381,-0.00103976,-0.00088123,-0.00089808,0.00022146,0.
 00059962,-0.00039513,0.00005375,0.00003584,-0.00015563,-0.00003551,0.0
 0000050,-0.00001504,-0.00018024,0.00028155,-0.00041197,0.00001617,-0.0
 0000423,0.00013769,-0.00003094,-0.00005009,-0.00000705,-0.03125647,-0.
 12579344,-0.16630933,-0.00001404,0.00001229,-0.00000315,-0.00001882,0.
 00001798,0.00000022,-0.00002281,0.00001324,-0.00000982,-0.00421755,-0.
 02074099,-0.01994019,0.00285582,0.00758722,0.00799845,0.03393158,0.139
 14336,0.17871057,0.02467405,0.00910279,0.00154132,-0.00058133,0.005561
 63,-0.00297070,-0.00160443,0.00133173,-0.00046350,-0.00670209,0.002326
 40,-0.00318451,-0.01526132,-0.03413938,0.00706092,-0.10483489,-0.01525
 315,0.00029915,0.00039496,0.00175524,-0.00051402,-0.00020621,0.0001886
 2,0.00013842,-0.00200473,-0.00005333,0.00033433,-0.00135813,-0.0020396
 6,0.00098725,-0.00013980,-0.00123208,0.00022567,-0.00112594,-0.0023753
 4,0.00050080,-0.00298015,0.00357656,0.00070114,-0.00189569,0.00238660,
 -0.00325858,-0.00015010,0.00001285,-0.00010178,-0.00013566,0.00000752,
 -0.00001331,-0.00021917,0.00006699,0.00001587,0.88502685,0.00357049,-0
 .03067169,0.00933198,0.00429010,-0.00120478,0.00323731,0.00405340,-0.0
 0011342,0.00041846,0.00065404,0.00949188,-0.00023537,-0.02393584,-0.00
 445011,-0.00297314,-0.02911034,-0.17101111,0.02013867,-0.00066594,0.00
 029853,-0.00004800,0.00023729,-0.00006253,-0.00031607,0.00402783,0.000
 64254,-0.00058606,-0.00252678,-0.00332016,-0.00056241,-0.00018897,0.00
 093488,-0.00013262,-0.00105308,-0.00035167,-0.00012740,-0.00047866,0.0
 0161164,0.00020500,-0.00093695,0.00136786,-0.00117194,0.00046211,0.000
 06966,-0.00000858,0.00041152,-0.00036150,0.00015043,0.00052383,0.00007
 228,0.00013997,0.13825071,0.58091766,0.00308789,0.01026616,-0.00181738
 ,-0.00261459,0.00345358,0.00637007,-0.00122446,-0.00004108,-0.00126071
 ,-0.00271285,0.00005371,0.00779500,0.00421200,-0.00469480,0.00143809,0
 .00417619,0.02248324,-0.08694683,0.00016333,0.00036196,0.00045641,0.00
 012452,-0.00032413,-0.00122367,-0.00080859,-0.00127742,-0.00367068,0.0
 0112116,-0.00048260,-0.00348230,-0.00006764,-0.00031296,0.00063622,0.0
 0013182,-0.00035159,-0.00004739,0.00091573,0.00000842,0.00053062,-0.00
 141016,0.00027440,-0.00031419,-0.00031635,0.00004653,-0.00005524,-0.00
 012756,0.00008408,-0.00010777,-0.00002385,-0.00007054,0.00001319,0.075
 55414,-0.07983091,0.24688309,-0.00904725,0.00412667,-0.00254838,0.0005
 3651,0.00024013,0.00018823,-0.00189144,0.00056417,-0.00051081,0.000010
 85,-0.00427267,0.00150352,0.00617815,-0.00168533,0.00104313,-0.0339936
 5,-0.03225332,-0.00027916,0.00011951,-0.00057261,0.00018432,0.00010566
 ,-0.00014550,0.00002374,0.00115457,0.00056495,-0.00008260,0.00040977,0
 .00471701,-0.00100104,0.00002600,-0.00026568,0.00013465,0.00127569,0.0
 0176215,-0.00048796,0.00170573,-0.00150342,-0.00138833,0.00081353,-0.0
 0066404,0.00222664,-0.00019053,-0.00005927,0.00003071,0.00005521,0.000
 08763,-0.00001841,-0.00015180,-0.00008610,-0.00005246,-0.63548721,-0.1
 5745940,-0.05056615,0.76730611,-0.00053314,0.00322563,-0.00121867,-0.0
 0045433,0.00039012,-0.00045557,-0.00102002,0.00016485,-0.00016336,-0.0
 0176842,-0.00138682,-0.00041318,0.00313365,-0.00678133,0.00320869,-0.0
 4490755,-0.00561026,-0.00021976,0.00011231,-0.00014081,0.00005191,-0.0
 0006548,-0.00008647,0.00007037,-0.00066551,0.00010405,0.00005359,0.001
 83818,-0.00535821,0.00139753,0.00006277,-0.00070112,0.00011497,-0.0004
 7325,-0.00131454,0.00063599,0.00010656,-0.00146757,0.00130829,0.000792
 21,-0.00155364,0.00000852,-0.00026388,-0.00006992,0.00001780,-0.000074
 10,0.00014116,-0.00004623,-0.00029039,-0.00008298,-0.00006363,-0.15588
 236,-0.15961510,-0.00358934,0.16089835,0.14667648,-0.00124502,-0.00042
 691,-0.00089888,0.00038055,-0.00033926,-0.00080591,-0.00006773,0.00010
 466,0.00015652,0.00079962,-0.00083931,-0.00143142,-0.00030373,0.002390
 61,0.00207883,0.00326080,0.00193136,0.02084647,-0.00000716,-0.00006411
 ,-0.00000652,0.00000164,0.00005673,0.00018905,0.00026391,0.00026272,0.
 00067061,-0.00019435,0.00188086,-0.00204663,0.00004232,0.00006022,-0.0
 0033483,0.00013613,0.00101600,0.00099295,-0.00076000,-0.00024644,-0.00
 002274,0.00074205,0.00104741,0.00094827,0.00011725,-0.00000099,0.00002
 748,0.00002712,-0.00001940,0.00002807,-0.00002376,0.00002475,0.0000024
 0,-0.05100719,-0.00386100,-0.08547340,0.07965165,-0.00459646,0.0474560
 6,-0.00133465,-0.00313255,0.00036221,0.00114002,-0.00066467,0.00052354
 ,0.00054851,-0.00041018,0.00021066,0.00118255,0.00110171,0.00001737,-0
 .00516409,-0.00271719,-0.00028001,0.01168794,-0.00016007,0.00010954,-0
 .00008247,-0.00020836,0.00006560,0.00015495,-0.00010107,0.00001858,0.0
 0075361,-0.00338307,0.00097969,-0.00096328,0.00023261,-0.00043121,-0.0
 0004751,0.00024317,-0.00007611,0.00043482,0.00091110,-0.00013538,0.000
 53290,-0.00070542,-0.00069024,0.00021042,-0.00010149,0.00115109,0.0000
 8070,-0.00001927,0.00003377,0.00017126,-0.00007090,0.00005429,0.000086
 18,-0.00003891,0.00000962,-0.15814226,0.02799195,-0.02383321,-0.094266
 92,0.04419640,-0.03334975,0.40892679,-0.00814557,-0.00106906,-0.000602
 46,0.00011580,-0.00203685,0.00034891,0.00012558,-0.00079608,0.00023810
 ,0.00117116,-0.00075921,0.00020263,0.00058743,-0.00542070,0.00189350,0
 .02401075,-0.04074952,0.01863756,-0.00017889,-0.00076175,0.00014767,-0
 .00009718,-0.00014086,0.00008257,-0.00190944,-0.00458731,0.00111877,0.
 00049431,0.00072253,0.00021549,0.00024270,-0.00031327,0.00012914,0.000
 11706,-0.00042897,0.00006504,0.00006064,0.00002650,0.00020706,0.000163
 36,-0.00025876,-0.00028363,-0.00022635,-0.00006016,0.00001680,-0.00016
 114,0.00017783,-0.00008650,-0.00021628,-0.00005846,-0.00005687,0.05933
 491,-0.17864849,0.04219594,0.03177888,0.02645911,0.00620921,0.10974910
 ,0.55888613,0.00176468,0.00024375,0.00193386,0.00030588,0.00021864,-0.
 00086406,0.00006067,0.00014784,-0.00005164,-0.00000214,0.00019010,-0.0
 0079890,-0.00120492,0.00133213,0.00040693,-0.00665401,0.01453620,0.006
 10529,0.00005733,0.00014263,-0.00015603,0.00001760,0.00008160,0.000191
 93,0.00056730,0.00086851,0.00041344,-0.00050310,0.00017154,0.00105961,
 -0.00007720,0.00013106,-0.00003912,0.00008631,0.00020019,-0.00030837,0
 .00010172,0.00005461,-0.00057613,0.00006987,-0.00030636,0.00003484,0.0
 0007750,-0.00002667,0.00001625,0.00008036,-0.00007228,-0.00000472,0.00
 007359,0.00005236,0.00000942,-0.03260469,0.03687990,-0.07968292,-0.029
 87429,0.00831422,0.02197560,0.03264164,-0.12780885,0.07689207,0.000878
 18,0.00063851,-0.00017944,-0.00016681,0.00026809,-0.00003459,-0.000187
 17,-0.00008799,-0.00002049,0.00033244,-0.00021561,0.00008609,-0.000850
 49,-0.00030718,-0.00003619,-0.00378547,0.00296084,-0.00211331,0.000042
 68,0.00009106,-0.00000522,0.00002096,-0.00003748,0.00002280,0.00062395
 ,-0.00021525,0.00022185,0.00003989,-0.00007332,0.00001309,0.00003302,-
 0.00004338,0.00001251,-0.00004185,-0.00008308,0.00001791,-0.00003125,0
 .00009922,0.00003919,-0.00000898,0.00005287,-0.00009300,-0.00002699,-0
 .00001124,0.00000365,0.00000846,0.00001688,-0.00000606,-0.00002592,-0.
 00000953,-0.00000526,0.02273326,0.03188269,-0.00578137,-0.00466848,-0.
 00474199,0.00153563,-0.16590946,-0.21701685,0.03501591,0.15099003,-0.0
 0094172,-0.00102644,0.00037494,0.00058724,-0.00015951,0.00003093,0.000
 08647,0.00012803,0.00000096,-0.00025324,0.00025385,-0.00006341,0.00062
 007,0.00082138,-0.00016048,0.00466251,0.00009949,0.00182255,-0.0000560
 5,-0.00008509,-0.00000726,-0.00000251,0.00003523,-0.00002483,-0.000198
 19,-0.00004109,-0.00011526,-0.00015950,0.00005275,-0.00001798,-0.00003
 260,0.00002151,-0.00000284,0.00005964,0.00014761,-0.00003419,0.0000983
 3,-0.00009488,-0.00008261,0.00005965,-0.00001540,0.00014743,0.00002761
 ,0.00000969,-0.00001323,-0.00000160,-0.00002417,0.00001111,0.00002391,
 0.00001023,0.00001378,-0.01292726,-0.04559636,0.01174734,-0.00577261,0
 .00700736,-0.00459063,-0.17271288,-0.35018266,0.06464887,0.18683273,0.
 38863846,0.00026327,0.00064301,0.00074590,-0.00012495,-0.00002300,-0.0
 0041816,-0.00006889,-0.00002886,0.00007546,0.00009660,-0.00005655,0.00
 021309,-0.00029600,-0.00031741,-0.00008718,-0.00258975,0.00153334,0.00
 292006,0.00003593,0.00001778,-0.00007570,0.00001304,-0.00003072,-0.000
 04112,0.00021711,-0.00011798,-0.00026289,0.00003715,-0.00000349,0.0000
 9183,0.00000957,-0.00000478,0.00003302,-0.00002195,-0.00005843,0.00000
 174,-0.00003629,0.00001859,0.00005037,-0.00001897,0.00004514,-0.000051
 80,-0.00001237,0.00000665,-0.00000404,-0.00000092,0.00001433,0.0000127
 7,-0.00000944,-0.00001845,-0.00000586,0.00675928,0.01935179,-0.0000402
 0,0.00182301,-0.00441567,-0.00435200,0.02261830,0.05712992,-0.02655735
 ,-0.02869372,-0.07368519,0.02775206\\0.00001253,0.00003536,-0.00000865
 ,-0.00002958,-0.00001835,0.00000037,0.00003366,-0.00001483,0.00001233,
 -0.00000986,0.00003928,-0.00000958,-0.00002169,-0.00002492,0.00000445,
 0.00002244,-0.00000421,0.00000128,0.00000545,0.00000202,0.00000034,-0.
 00000299,-0.00000011,-0.00000310,0.00000131,0.00000400,-0.00000415,-0.
 00001639,-0.00001237,0.00001979,0.00001267,-0.00001280,-0.00000151,0.0
 0000295,-0.00000124,-0.00000451,0.00000786,0.00000135,-0.00000490,0.00
 000204,0.00000136,-0.00000778,0.00000191,0.00000053,0.00000434,-0.0000
 0679,0.00000263,0.,-0.00000172,0.00000056,-0.00000043,-0.00002730,0.00
 000676,-0.00000164,0.00002009,0.00000835,0.00000215,-0.00000797,-0.000
 01012,0.00000172,0.00000137,-0.00000324,-0.00000052\\\@


 MY GROUP MEETINGS AREN'T VERY STRUCTURED.
     -- PROF. M. S. GORDON, OCT. 5, 1984
 Job cpu time:       0 days  0 hours 42 minutes 39.8 seconds.
 Elapsed time:       0 days  0 hours 42 minutes 43.5 seconds.
 File lengths (MBytes):  RWF=    284 Int=      0 D2E=      0 Chk=     14 Scr=      1
 Normal termination of Gaussian 16 at Mon Jan 20 18:21:57 2025.
