 Entering Gaussian System, Link 0=g16
 Initial command:
 /sw/cluster/pub/apps//g16/l1.exe "/data/mmaximo/27751/Gau-1916619.inp" -scrdir="/data/mmaximo/27751/"
 Entering Link 1 = /sw/cluster/pub/apps//g16/l1.exe PID=   1916620.
  
 Copyright (c) 1988,1990,1992,1993,1995,1998,2003,2009,2016,
            Gaussian, Inc.  All Rights Reserved.
  
 This is part of the Gaussian(R) 16 program.  It is based on
 the Gaussian(R) 09 system (copyright 2009, Gaussian, Inc.),
 the Gaussian(R) 03 system (copyright 2003, Gaussian, Inc.),
 the Gaussian(R) 98 system (copyright 1998, Gaussian, Inc.),
 the Gaussian(R) 94 system (copyright 1995, Gaussian, Inc.),
 the Gaussian 92(TM) system (copyright 1992, Gaussian, Inc.),
 the Gaussian 90(TM) system (copyright 1990, Gaussian, Inc.),
 the Gaussian 88(TM) system (copyright 1988, Gaussian, Inc.),
 the Gaussian 86(TM) system (copyright 1986, Carnegie Mellon
 University), and the Gaussian 82(TM) system (copyright 1983,
 Carnegie Mellon University). Gaussian is a federally registered
 trademark of Gaussian, Inc.
  
 This software contains proprietary and confidential information,
 including trade secrets, belonging to Gaussian, Inc.
  
 This software is provided under written license and may be
 used, copied, transmitted, or stored only in accord with that
 written license.
  
 The following legend is applicable only to US Government
 contracts under FAR:
  
                    RESTRICTED RIGHTS LEGEND
  
 Use, reproduction and disclosure by the US Government is
 subject to restrictions as set forth in subparagraphs (a)
 and (c) of the Commercial Computer Software - Restricted
 Rights clause in FAR 52.227-19.
  
 Gaussian, Inc.
 340 Quinnipiac St., Bldg. 40, Wallingford CT 06492
  
  
 ---------------------------------------------------------------
 Warning -- This program may not be used in any manner that
 competes with the business of Gaussian, Inc. or will provide
 assistance to any competitor of Gaussian, Inc.  The licensee
 of this program is prohibited from giving any competitor of
 Gaussian, Inc. access to this program.  By using this program,
 the user acknowledges that Gaussian, Inc. is engaged in the
 business of creating and licensing software in the field of
 computational chemistry and represents and warrants to the
 licensee that it is not a competitor of Gaussian, Inc. and that
 it will not use this program in any manner prohibited above.
 ---------------------------------------------------------------
  

 Cite this work as:
 Gaussian 16, Revision A.03,
 M. J. Frisch, G. W. Trucks, H. B. Schlegel, G. E. Scuseria, 
 M. A. Robb, J. R. Cheeseman, G. Scalmani, V. Barone, 
 G. A. Petersson, H. Nakatsuji, X. Li, M. Caricato, A. V. Marenich, 
 J. Bloino, B. G. Janesko, R. Gomperts, B. Mennucci, H. P. Hratchian, 
 J. V. Ortiz, A. F. Izmaylov, J. L. Sonnenberg, D. Williams-Young, 
 F. Ding, F. Lipparini, F. Egidi, J. Goings, B. Peng, A. Petrone, 
 T. Henderson, D. Ranasinghe, V. G. Zakrzewski, J. Gao, N. Rega, 
 G. Zheng, W. Liang, M. Hada, M. Ehara, K. Toyota, R. Fukuda, 
 J. Hasegawa, M. Ishida, T. Nakajima, Y. Honda, O. Kitao, H. Nakai, 
 T. Vreven, K. Throssell, J. A. Montgomery, Jr., J. E. Peralta, 
 F. Ogliaro, M. J. Bearpark, J. J. Heyd, E. N. Brothers, K. N. Kudin, 
 V. N. Staroverov, T. A. Keith, R. Kobayashi, J. Normand, 
 K. Raghavachari, A. P. Rendell, J. C. Burant, S. S. Iyengar, 
 J. Tomasi, M. Cossi, J. M. Millam, M. Klene, C. Adamo, R. Cammi, 
 J. W. Ochterski, R. L. Martin, K. Morokuma, O. Farkas, 
 J. B. Foresman, and D. J. Fox, Gaussian, Inc., Wallingford CT, 2016.
 
 ******************************************
 Gaussian 16:  ES64L-G16RevA.03 25-Dec-2016
                14-Jan-2025 
 ******************************************
 %chk=C6H5O-.chk
 ----------------------------------------
 #P B3LYP/def2tzvp nosymm Density=Current
 ----------------------------------------
 1/30=1,38=1,172=1/1;
 2/12=2,15=1,17=6,18=5,40=1/2;
 3/5=44,7=101,11=2,25=1,30=1,74=-5/1,2,3;
 4//1;
 5/5=2,38=5/2;
 6/7=2,8=2,9=2,10=2,22=-1,28=1/1;
 99/5=1,9=1/99;
 Leave Link    1 at Tue Jan 14 14:03:15 2025, MaxMem=           0 cpu:               0.0 elap:               0.0
 (Enter /sw/cluster/pub/apps//g16/l101.exe)
 ------------
 Single-Point
 ------------
 Symbolic Z-matrix:
 Charge = -1 Multiplicity = 1
 C                     0.       -1.82338   0. 
 C                     1.19678  -1.09763   0. 
 C                     1.20912   0.28612   0. 
 C                     0.        1.0773    0. 
 C                    -1.20912   0.28612   0. 
 C                    -1.19678  -1.09763   0. 
 H                     0.       -2.90742   0. 
 H                     2.14385  -1.63452   0. 
 H                     2.14975   0.8293    0. 
 H                    -2.14975   0.8293    0. 
 H                    -2.14385  -1.63452   0. 
 O                     0.        2.34155   0. 
 
 ITRead=  0  0  0  0  0  0  0  0  0  0  0  0
 MicOpt= -1 -1 -1 -1 -1 -1 -1 -1 -1 -1 -1 -1
 NAtoms=     12 NQM=       12 NQMF=       0 NMMI=      0 NMMIF=      0
                NMic=       0 NMicF=      0.
                    Isotopes and Nuclear Properties:
 (Nuclear quadrupole moments (NQMom) in fm**2, nuclear magnetic moments (NMagM)
  in nuclear magnetons)

  Atom         1           2           3           4           5           6           7           8           9          10
 IAtWgt=          12          12          12          12          12          12           1           1           1           1
 AtmWgt=  12.0000000  12.0000000  12.0000000  12.0000000  12.0000000  12.0000000   1.0078250   1.0078250   1.0078250   1.0078250
 NucSpn=           0           0           0           0           0           0           1           1           1           1
 AtZEff=  -0.0000000  -0.0000000  -0.0000000  -0.0000000  -0.0000000  -0.0000000  -0.0000000  -0.0000000  -0.0000000  -0.0000000
 NQMom=    0.0000000   0.0000000   0.0000000   0.0000000   0.0000000   0.0000000   0.0000000   0.0000000   0.0000000   0.0000000
 NMagM=    0.0000000   0.0000000   0.0000000   0.0000000   0.0000000   0.0000000   2.7928460   2.7928460   2.7928460   2.7928460
 AtZNuc=   6.0000000   6.0000000   6.0000000   6.0000000   6.0000000   6.0000000   1.0000000   1.0000000   1.0000000   1.0000000

  Atom        11          12
 IAtWgt=           1          16
 AtmWgt=   1.0078250  15.9949146
 NucSpn=           1           0
 AtZEff=  -0.0000000  -0.0000000
 NQMom=    0.0000000   0.0000000
 NMagM=    2.7928460   0.0000000
 AtZNuc=   1.0000000   8.0000000
 Leave Link  101 at Tue Jan 14 14:03:15 2025, MaxMem=   104857600 cpu:               0.0 elap:               0.0
 (Enter /sw/cluster/pub/apps//g16/l202.exe)
                          Input orientation:                          
 ---------------------------------------------------------------------
 Center     Atomic      Atomic             Coordinates (Angstroms)
 Number     Number       Type             X           Y           Z
 ---------------------------------------------------------------------
      1          6           0        0.000000   -1.823382    0.000000
      2          6           0        1.196781   -1.097626    0.000000
      3          6           0        1.209120    0.286125    0.000000
      4          6           0        0.000000    1.077297    0.000000
      5          6           0       -1.209120    0.286125    0.000000
      6          6           0       -1.196781   -1.097626    0.000000
      7          1           0        0.000000   -2.907422    0.000000
      8          1           0        2.143854   -1.634525    0.000000
      9          1           0        2.149753    0.829302    0.000000
     10          1           0       -2.149753    0.829302    0.000000
     11          1           0       -2.143854   -1.634525    0.000000
     12          8           0        0.000000    2.341549    0.000000
 ---------------------------------------------------------------------
                    Distance matrix (angstroms):
                    1          2          3          4          5
     1  C    0.000000
     2  C    1.399645   0.000000
     3  C    2.431458   1.383806   0.000000
     4  C    2.900679   2.482453   1.444965   0.000000
     5  C    2.431458   2.775451   2.418240   1.444965   0.000000
     6  C    1.399645   2.393563   2.775451   2.482453   1.383806
     7  H    1.084041   2.169712   3.414779   3.984719   3.414779
     8  H    2.152156   1.088672   2.136030   3.456890   3.864108
     9  H    3.414406   2.149699   1.086201   2.164010   3.402509
    10  H    3.414406   3.861650   3.402509   2.164010   1.086201
    11  H    2.152156   3.383505   3.864108   3.456890   2.136030
    12  O    4.164931   3.641457   2.384689   1.264252   2.384689
                    6          7          8          9         10
     6  C    0.000000
     7  H    2.169712   0.000000
     8  H    3.383505   2.493267   0.000000
     9  H    3.861650   4.310980   2.463834   0.000000
    10  H    2.149699   4.310980   4.950303   4.299505   0.000000
    11  H    1.088672   2.493267   4.287708   4.950303   2.463834
    12  O    3.641457   5.248971   4.517220   2.628370   2.628370
                   11         12
    11  H    0.000000
    12  O    4.517220   0.000000
 Symmetry turned off by external request.
 Stoichiometry    C6H5O(1-)
 Framework group  C2V[C2(HCCO),SGV(C4H4)]
 Deg. of freedom    11
 Full point group                 C2V     NOp   4
 Rotational constants (GHZ):           5.7402367           2.6956903           1.8342857
 Leave Link  202 at Tue Jan 14 14:03:15 2025, MaxMem=   104857600 cpu:               0.0 elap:               0.0
 (Enter /sw/cluster/pub/apps//g16/l301.exe)
 Standard basis: def2TZVP (5D, 7F)
 Ernie: Thresh=  0.10000D-02 Tol=  0.10000D-05 Strict=F.
   247 basis functions,   397 primitive gaussians,   282 cartesian basis functions
    25 alpha electrons       25 beta electrons
       nuclear repulsion energy       259.9094078383 Hartrees.
 IExCor=  402 DFT=T Ex+Corr=B3LYP ExCW=0 ScaHFX=  0.200000
 ScaDFX=  0.800000  0.720000  1.000000  0.810000 ScalE2=  1.000000  1.000000
 IRadAn=      5 IRanWt=     -1 IRanGd=            0 ICorTp=0 IEmpDi=  4
 NAtoms=   12 NActive=   12 NUniq=   12 SFac= 1.00D+00 NAtFMM=   60 NAOKFM=F Big=F
 Integral buffers will be    131072 words long.
 Raffenetti 2 integral format.
 Two-electron integral symmetry is turned off.
 Leave Link  301 at Tue Jan 14 14:03:15 2025, MaxMem=   104857600 cpu:               0.0 elap:               0.0
 (Enter /sw/cluster/pub/apps//g16/l302.exe)
 NPDir=0 NMtPBC=     1 NCelOv=     1 NCel=       1 NClECP=     1 NCelD=      1
         NCelK=      1 NCelE2=     1 NClLst=     1 CellRange=     0.0.
 One-electron integrals computed using PRISM.
   1 Symmetry operations used in ECPInt.
 ECPInt:  NShTT=    4753 NPrTT=   14704 LenC2=    4698 LenP2D=   11997.
 LDataN:  DoStor=T MaxTD1= 6 Len=  172
 NBasis=   247 RedAO= T EigKep=  1.36D-05  NBF=   247
 NBsUse=   247 1.00D-06 EigRej= -1.00D+00 NBFU=   247
 Precomputing XC quadrature grid using
 IXCGrd= 4 IRadAn=           5 IRanWt=          -1 IRanGd=           0 AccXCQ= 0.00D+00.
 Generated NRdTot=       0 NPtTot=           0 NUsed=           0 NTot=          32
 NSgBfM=   281   281   281   281   281 MxSgAt=    12 MxSgA2=    12.
 Leave Link  302 at Tue Jan 14 14:03:15 2025, MaxMem=   104857600 cpu:               0.1 elap:               0.1
 (Enter /sw/cluster/pub/apps//g16/l303.exe)
 DipDrv:  MaxL=1.
 Leave Link  303 at Tue Jan 14 14:03:15 2025, MaxMem=   104857600 cpu:               0.0 elap:               0.0
 (Enter /sw/cluster/pub/apps//g16/l401.exe)
 ExpMin= 9.52D-02 ExpMax= 2.70D+04 ExpMxC= 9.22D+02 IAcc=3 IRadAn=         5 AccDes= 0.00D+00
 Harris functional with IExCor=  402 and IRadAn=       5 diagonalized for initial guess.
 HarFok:  IExCor=  402 AccDes= 0.00D+00 IRadAn=         5 IDoV= 1 UseB2=F ITyADJ=14
 ICtDFT=  3500011 ScaDFX=  1.000000  1.000000  1.000000  1.000000
 FoFCou: FMM=F IPFlag=           0 FMFlag=      100000 FMFlg1=           0
         NFxFlg=           0 DoJE=T BraDBF=F KetDBF=T FulRan=T
         wScrn=  0.000000 ICntrl=       500 IOpCl=  0 I1Cent=   200000004 NGrid=           0
         NMat0=    1 NMatS0=      1 NMatT0=    0 NMatD0=    1 NMtDS0=    0 NMtDT0=    0
 Symmetry not used in FoFCou.
 Harris En= -307.256966319970    
 JPrj=0 DoOrth=F DoCkMO=F.
 Leave Link  401 at Tue Jan 14 14:03:17 2025, MaxMem=   104857600 cpu:               1.7 elap:               1.7
 (Enter /sw/cluster/pub/apps//g16/l502.exe)
 Two-electron integral symmetry not used.
 Closed shell SCF:
 Using DIIS extrapolation, IDIIS=  1040.
 NGot=   104857600 LenX=   104694930 LenY=   104614965
 Requested convergence on RMS density matrix=1.00D-08 within 128 cycles.
 Requested convergence on MAX density matrix=1.00D-06.
 Requested convergence on             energy=1.00D-06.
 No special actions if energy rises.
 Fock matrices will be formed incrementally for  20 cycles.
 Integral accuracy reduced to 1.0D-05 until final iterations.

 Cycle   1  Pass 0  IDiag  1:
 FoFJK:  IHMeth= 1 ICntrl=       0 DoSepK=F KAlg= 0 I1Cent=           0 FoldK=F
 IRaf= 970000000 NMat=       1 IRICut=       1 DoRegI=T DoRafI=F ISym2E= 0 IDoP0=0 IntGTp=1.
 FoFCou: FMM=F IPFlag=           0 FMFlag=      100000 FMFlg1=           0
         NFxFlg=           0 DoJE=F BraDBF=F KetDBF=F FulRan=T
         wScrn=  0.000000 ICntrl=         0 IOpCl=  0 I1Cent=           0 NGrid=           0
         NMat0=    1 NMatS0=      1 NMatT0=    0 NMatD0=    1 NMtDS0=    0 NMtDT0=    0
 Symmetry not used in FoFCou.
 E= -306.717321269446    
 DIIS: error= 4.72D-02 at cycle   1 NSaved=   1.
 NSaved= 1 IEnMin= 1 EnMin= -306.717321269446     IErMin= 1 ErrMin= 4.72D-02
 ErrMax= 4.72D-02  0.00D+00 EMaxC= 1.00D-01 BMatC= 3.14D-01 BMatP= 3.14D-01
 IDIUse=3 WtCom= 5.28D-01 WtEn= 4.72D-01
 Coeff-Com:  0.100D+01
 Coeff-En:   0.100D+01
 Coeff:      0.100D+01
 Gap=     0.145 Goal=   None    Shift=    0.000
 GapD=    0.145 DampG=1.000 DampE=0.500 DampFc=0.5000 IDamp=-1.
 Damping current iteration by 5.00D-01
 RMSDP=5.86D-02 MaxDP=3.17D+00              OVMax= 3.80D-01

 Cycle   2  Pass 0  IDiag  1:
 RMSU=  2.92D-02    CP:  1.21D+00
 E= -306.788361682868     Delta-E=       -0.071040413422 Rises=F Damp=T
 DIIS: error= 1.32D-02 at cycle   2 NSaved=   2.
 NSaved= 2 IEnMin= 2 EnMin= -306.788361682868     IErMin= 2 ErrMin= 1.32D-02
 ErrMax= 1.32D-02  0.00D+00 EMaxC= 1.00D-01 BMatC= 4.49D-02 BMatP= 3.14D-01
 IDIUse=3 WtCom= 8.68D-01 WtEn= 1.32D-01
 Coeff-Com:  0.215D+00 0.785D+00
 Coeff-En:   0.370D+00 0.630D+00
 Coeff:      0.236D+00 0.764D+00
 Gap=     0.249 Goal=   None    Shift=    0.000
 RMSDP=2.56D-02 MaxDP=1.38D+00 DE=-7.10D-02 OVMax= 2.88D-01

 Cycle   3  Pass 0  IDiag  1:
 RMSU=  3.09D-03    CP:  1.01D+00  1.35D-01
 E= -306.981556445857     Delta-E=       -0.193194762989 Rises=F Damp=F
 DIIS: error= 1.63D-02 at cycle   3 NSaved=   3.
 NSaved= 3 IEnMin= 3 EnMin= -306.981556445857     IErMin= 2 ErrMin= 1.32D-02
 ErrMax= 1.63D-02  0.00D+00 EMaxC= 1.00D-01 BMatC= 4.71D-02 BMatP= 4.49D-02
 IDIUse=3 WtCom= 8.37D-01 WtEn= 1.63D-01
 Coeff-Com:  0.752D-01 0.508D+00 0.417D+00
 Coeff-En:   0.000D+00 0.000D+00 0.100D+01
 Coeff:      0.629D-01 0.425D+00 0.512D+00
 Gap=     0.168 Goal=   None    Shift=    0.000
 RMSDP=4.54D-03 MaxDP=2.50D-01 DE=-1.93D-01 OVMax= 1.59D-01

 Cycle   4  Pass 0  IDiag  1:
 RMSU=  1.79D-03    CP:  1.06D+00  2.75D-01  1.23D+00
 E= -307.011055441196     Delta-E=       -0.029498995339 Rises=F Damp=F
 DIIS: error= 7.68D-03 at cycle   4 NSaved=   4.
 NSaved= 4 IEnMin= 4 EnMin= -307.011055441196     IErMin= 4 ErrMin= 7.68D-03
 ErrMax= 7.68D-03  0.00D+00 EMaxC= 1.00D-01 BMatC= 1.40D-02 BMatP= 4.49D-02
 IDIUse=3 WtCom= 9.23D-01 WtEn= 7.68D-02
 Coeff-Com: -0.189D-02 0.110D+00 0.357D+00 0.535D+00
 Coeff-En:   0.000D+00 0.000D+00 0.283D+00 0.717D+00
 Coeff:     -0.175D-02 0.102D+00 0.352D+00 0.549D+00
 Gap=     0.172 Goal=   None    Shift=    0.000
 RMSDP=1.83D-03 MaxDP=1.01D-01 DE=-2.95D-02 OVMax= 5.53D-02

 Cycle   5  Pass 0  IDiag  1:
 RMSU=  1.70D-04    CP:  1.04D+00  2.17D-01  1.17D+00  6.41D-01
 E= -307.023771273533     Delta-E=       -0.012715832337 Rises=F Damp=F
 DIIS: error= 1.54D-03 at cycle   5 NSaved=   5.
 NSaved= 5 IEnMin= 5 EnMin= -307.023771273533     IErMin= 5 ErrMin= 1.54D-03
 ErrMax= 1.54D-03  0.00D+00 EMaxC= 1.00D-01 BMatC= 2.36D-04 BMatP= 1.40D-02
 IDIUse=3 WtCom= 9.85D-01 WtEn= 1.54D-02
 Coeff-Com: -0.653D-02 0.124D-01 0.997D-01 0.217D+00 0.678D+00
 Coeff-En:   0.000D+00 0.000D+00 0.000D+00 0.000D+00 0.100D+01
 Coeff:     -0.643D-02 0.122D-01 0.981D-01 0.214D+00 0.683D+00
 Gap=     0.170 Goal=   None    Shift=    0.000
 RMSDP=1.33D-04 MaxDP=6.78D-03 DE=-1.27D-02 OVMax= 8.55D-03

 Cycle   6  Pass 0  IDiag  1:
 RMSU=  6.44D-05    CP:  1.04D+00  2.20D-01  1.18D+00  6.71D-01  8.85D-01
 E= -307.023928837709     Delta-E=       -0.000157564176 Rises=F Damp=F
 DIIS: error= 1.12D-03 at cycle   6 NSaved=   6.
 NSaved= 6 IEnMin= 6 EnMin= -307.023928837709     IErMin= 6 ErrMin= 1.12D-03
 ErrMax= 1.12D-03  0.00D+00 EMaxC= 1.00D-01 BMatC= 7.23D-05 BMatP= 2.36D-04
 IDIUse=3 WtCom= 9.89D-01 WtEn= 1.12D-02
 Coeff-Com: -0.359D-02-0.123D-02 0.301D-01 0.837D-01 0.427D+00 0.464D+00
 Coeff-En:   0.000D+00 0.000D+00 0.000D+00 0.000D+00 0.254D+00 0.746D+00
 Coeff:     -0.355D-02-0.121D-02 0.298D-01 0.827D-01 0.425D+00 0.467D+00
 Gap=     0.170 Goal=   None    Shift=    0.000
 RMSDP=3.91D-05 MaxDP=8.81D-04 DE=-1.58D-04 OVMax= 4.48D-03

 Cycle   7  Pass 0  IDiag  1:
 RMSU=  2.96D-05    CP:  1.04D+00  2.20D-01  1.18D+00  6.74D-01  9.38D-01
                    CP:  6.46D-01
 E= -307.024002369078     Delta-E=       -0.000073531369 Rises=F Damp=F
 DIIS: error= 2.18D-04 at cycle   7 NSaved=   7.
 NSaved= 7 IEnMin= 7 EnMin= -307.024002369078     IErMin= 7 ErrMin= 2.18D-04
 ErrMax= 2.18D-04  0.00D+00 EMaxC= 1.00D-01 BMatC= 4.07D-06 BMatP= 7.23D-05
 IDIUse=3 WtCom= 9.98D-01 WtEn= 2.18D-03
 Coeff-Com: -0.660D-03-0.187D-02 0.540D-02 0.182D-01 0.134D+00 0.239D+00
 Coeff-Com:  0.606D+00
 Coeff-En:   0.000D+00 0.000D+00 0.000D+00 0.000D+00 0.000D+00 0.000D+00
 Coeff-En:   0.100D+01
 Coeff:     -0.658D-03-0.187D-02 0.539D-02 0.182D-01 0.134D+00 0.238D+00
 Coeff:      0.606D+00
 Gap=     0.170 Goal=   None    Shift=    0.000
 RMSDP=9.89D-06 MaxDP=2.62D-04 DE=-7.35D-05 OVMax= 8.15D-04

 Initial convergence to 1.0D-05 achieved.  Increase integral accuracy.
 Cycle   8  Pass 1  IDiag  1:
 E= -307.023999816240     Delta-E=        0.000002552837 Rises=F Damp=F
 DIIS: error= 7.51D-05 at cycle   1 NSaved=   1.
 NSaved= 1 IEnMin= 1 EnMin= -307.023999816240     IErMin= 1 ErrMin= 7.51D-05
 ErrMax= 7.51D-05  0.00D+00 EMaxC= 1.00D-01 BMatC= 8.54D-07 BMatP= 8.54D-07
 IDIUse=1 WtCom= 1.00D+00 WtEn= 0.00D+00
 Coeff-Com:  0.100D+01
 Coeff:      0.100D+01
 Gap=     0.171 Goal=   None    Shift=    0.000
 RMSDP=9.89D-06 MaxDP=2.62D-04 DE= 2.55D-06 OVMax= 8.20D-04

 Cycle   9  Pass 1  IDiag  1:
 RMSU=  4.69D-05    CP:  9.98D-01
 E= -307.023998755693     Delta-E=        0.000001060547 Rises=F Damp=F
 DIIS: error= 1.21D-04 at cycle   2 NSaved=   2.
 NSaved= 2 IEnMin= 1 EnMin= -307.023999816240     IErMin= 1 ErrMin= 7.51D-05
 ErrMax= 1.21D-04  0.00D+00 EMaxC= 1.00D-01 BMatC= 1.68D-06 BMatP= 8.54D-07
 IDIUse=3 WtCom= 4.76D-01 WtEn= 5.24D-01
 Coeff-Com:  0.590D+00 0.410D+00
 Coeff-En:   0.688D+00 0.312D+00
 Coeff:      0.642D+00 0.358D+00
 Gap=     0.170 Goal=   None    Shift=    0.000
 RMSDP=1.43D-05 MaxDP=8.26D-04 DE= 1.06D-06 OVMax= 6.03D-04

 Cycle  10  Pass 1  IDiag  1:
 RMSU=  6.71D-06    CP:  9.98D-01  7.97D-01
 E= -307.024000490630     Delta-E=       -0.000001734938 Rises=F Damp=F
 DIIS: error= 1.88D-05 at cycle   3 NSaved=   3.
 NSaved= 3 IEnMin= 3 EnMin= -307.024000490630     IErMin= 3 ErrMin= 1.88D-05
 ErrMax= 1.88D-05  0.00D+00 EMaxC= 1.00D-01 BMatC= 3.98D-08 BMatP= 8.54D-07
 IDIUse=1 WtCom= 1.00D+00 WtEn= 0.00D+00
 Coeff-Com:  0.220D+00 0.135D+00 0.644D+00
 Coeff:      0.220D+00 0.135D+00 0.644D+00
 Gap=     0.170 Goal=   None    Shift=    0.000
 RMSDP=3.01D-06 MaxDP=1.59D-04 DE=-1.73D-06 OVMax= 1.19D-04

 Cycle  11  Pass 1  IDiag  1:
 RMSU=  1.34D-06    CP:  9.98D-01  8.39D-01  8.98D-01
 E= -307.024000503458     Delta-E=       -0.000000012828 Rises=F Damp=F
 DIIS: error= 1.49D-05 at cycle   4 NSaved=   4.
 NSaved= 4 IEnMin= 4 EnMin= -307.024000503458     IErMin= 4 ErrMin= 1.49D-05
 ErrMax= 1.49D-05  0.00D+00 EMaxC= 1.00D-01 BMatC= 2.76D-08 BMatP= 3.98D-08
 IDIUse=1 WtCom= 1.00D+00 WtEn= 0.00D+00
 Coeff-Com:  0.800D-02-0.330D-02 0.457D+00 0.539D+00
 Coeff:      0.800D-02-0.330D-02 0.457D+00 0.539D+00
 Gap=     0.170 Goal=   None    Shift=    0.000
 RMSDP=2.01D-06 MaxDP=1.14D-04 DE=-1.28D-08 OVMax= 6.85D-05

 Cycle  12  Pass 1  IDiag  1:
 RMSU=  2.69D-07    CP:  9.98D-01  8.11D-01  9.88D-01  4.90D-01
 E= -307.024000528326     Delta-E=       -0.000000024868 Rises=F Damp=F
 DIIS: error= 2.28D-06 at cycle   5 NSaved=   5.
 NSaved= 5 IEnMin= 5 EnMin= -307.024000528326     IErMin= 5 ErrMin= 2.28D-06
 ErrMax= 2.28D-06  0.00D+00 EMaxC= 1.00D-01 BMatC= 1.43D-09 BMatP= 2.76D-08
 IDIUse=1 WtCom= 1.00D+00 WtEn= 0.00D+00
 Coeff-Com:  0.342D-04-0.524D-02 0.286D+00 0.355D+00 0.365D+00
 Coeff:      0.342D-04-0.524D-02 0.286D+00 0.355D+00 0.365D+00
 Gap=     0.170 Goal=   None    Shift=    0.000
 RMSDP=6.79D-07 MaxDP=3.66D-05 DE=-2.49D-08 OVMax= 1.03D-05

 Cycle  13  Pass 1  IDiag  1:
 RMSU=  8.95D-08    CP:  9.98D-01  8.21D-01  9.67D-01  5.71D-01  3.50D-01
 E= -307.024000529399     Delta-E=       -0.000000001073 Rises=F Damp=F
 DIIS: error= 3.93D-07 at cycle   6 NSaved=   6.
 NSaved= 6 IEnMin= 6 EnMin= -307.024000529399     IErMin= 6 ErrMin= 3.93D-07
 ErrMax= 3.93D-07  0.00D+00 EMaxC= 1.00D-01 BMatC= 2.67D-11 BMatP= 1.43D-09
 IDIUse=1 WtCom= 1.00D+00 WtEn= 0.00D+00
 Coeff-Com: -0.778D-03-0.165D-02 0.970D-01 0.123D+00 0.164D+00 0.618D+00
 Coeff:     -0.778D-03-0.165D-02 0.970D-01 0.123D+00 0.164D+00 0.618D+00
 Gap=     0.170 Goal=   None    Shift=    0.000
 RMSDP=2.67D-08 MaxDP=6.55D-07 DE=-1.07D-09 OVMax= 1.69D-06

 Cycle  14  Pass 1  IDiag  1:
 RMSU=  1.92D-08    CP:  9.98D-01  8.21D-01  9.67D-01  5.65D-01  3.91D-01
                    CP:  9.41D-01
 E= -307.024000529421     Delta-E=       -0.000000000023 Rises=F Damp=F
 DIIS: error= 1.02D-07 at cycle   7 NSaved=   7.
 NSaved= 7 IEnMin= 7 EnMin= -307.024000529421     IErMin= 7 ErrMin= 1.02D-07
 ErrMax= 1.02D-07  0.00D+00 EMaxC= 1.00D-01 BMatC= 1.90D-12 BMatP= 2.67D-11
 IDIUse=1 WtCom= 1.00D+00 WtEn= 0.00D+00
 Coeff-Com: -0.312D-03-0.175D-03 0.262D-01 0.334D-01 0.412D-01 0.254D+00
 Coeff-Com:  0.645D+00
 Coeff:     -0.312D-03-0.175D-03 0.262D-01 0.334D-01 0.412D-01 0.254D+00
 Coeff:      0.645D+00
 Gap=     0.170 Goal=   None    Shift=    0.000
 RMSDP=1.95D-08 MaxDP=1.11D-06 DE=-2.25D-11 OVMax= 5.35D-07

 Cycle  15  Pass 1  IDiag  1:
 RMSU=  4.93D-09    CP:  9.98D-01  8.21D-01  9.66D-01  5.68D-01  3.81D-01
                    CP:  9.81D-01  9.50D-01
 E= -307.024000529423     Delta-E=       -0.000000000001 Rises=F Damp=F
 DIIS: error= 3.82D-08 at cycle   8 NSaved=   8.
 NSaved= 8 IEnMin= 8 EnMin= -307.024000529423     IErMin= 8 ErrMin= 3.82D-08
 ErrMax= 3.82D-08  0.00D+00 EMaxC= 1.00D-01 BMatC= 3.50D-13 BMatP= 1.90D-12
 IDIUse=1 WtCom= 1.00D+00 WtEn= 0.00D+00
 Coeff-Com:  0.252D-04 0.415D-03-0.107D-01-0.136D-01-0.218D-01-0.157D-01
 Coeff-Com:  0.331D+00 0.731D+00
 Coeff:      0.252D-04 0.415D-03-0.107D-01-0.136D-01-0.218D-01-0.157D-01
 Coeff:      0.331D+00 0.731D+00
 Gap=     0.170 Goal=   None    Shift=    0.000
 RMSDP=1.14D-08 MaxDP=6.79D-07 DE=-1.25D-12 OVMax= 1.29D-07

 Cycle  16  Pass 1  IDiag  1:
 RMSU=  1.85D-09    CP:  9.98D-01  8.21D-01  9.65D-01  5.69D-01  3.78D-01
                    CP:  1.01D+00  1.03D+00  9.83D-01
 E= -307.024000529423     Delta-E=        0.000000000000 Rises=F Damp=F
 DIIS: error= 7.23D-09 at cycle   9 NSaved=   9.
 NSaved= 9 IEnMin= 8 EnMin= -307.024000529423     IErMin= 9 ErrMin= 7.23D-09
 ErrMax= 7.23D-09  0.00D+00 EMaxC= 1.00D-01 BMatC= 6.67D-15 BMatP= 3.50D-13
 IDIUse=1 WtCom= 1.00D+00 WtEn= 0.00D+00
 Coeff-Com:  0.159D-04 0.111D-03-0.349D-02-0.459D-02-0.661D-02-0.944D-02
 Coeff-Com:  0.877D-01 0.219D+00 0.718D+00
 Coeff:      0.159D-04 0.111D-03-0.349D-02-0.459D-02-0.661D-02-0.944D-02
 Coeff:      0.877D-01 0.219D+00 0.718D+00
 Gap=     0.170 Goal=   None    Shift=    0.000
 RMSDP=1.25D-09 MaxDP=5.66D-08 DE= 0.00D+00 OVMax= 7.28D-08

 SCF Done:  E(RB3LYP) =  -307.024000529     A.U. after   16 cycles
            NFock= 16  Conv=0.13D-08     -V/T= 2.0048
 KE= 3.055479149712D+02 PE=-1.245532921685D+03 EE= 3.730515983457D+02
 Leave Link  502 at Tue Jan 14 14:04:43 2025, MaxMem=   104857600 cpu:              86.5 elap:              86.7
 (Enter /sw/cluster/pub/apps//g16/l601.exe)
 Copying SCF densities to generalized density rwf, IOpCl= 0 IROHF=0.

 **********************************************************************

            Population analysis using the SCF density.

 **********************************************************************

 Alpha  occ. eigenvalues --  -18.86194 -10.02990 -10.00281 -10.00281  -9.98740
 Alpha  occ. eigenvalues --   -9.97780  -9.97778  -0.78288  -0.65786  -0.56499
 Alpha  occ. eigenvalues --   -0.53079  -0.42200  -0.40199  -0.33089  -0.27461
 Alpha  occ. eigenvalues --   -0.27458  -0.24261  -0.21865  -0.20206  -0.17783
 Alpha  occ. eigenvalues --   -0.16873  -0.13518  -0.08125  -0.03415  -0.00487
 Alpha virt. eigenvalues --    0.16554   0.18861   0.19583   0.21244   0.23005
 Alpha virt. eigenvalues --    0.24933   0.25745   0.30013   0.32716   0.33275
 Alpha virt. eigenvalues --    0.35474   0.36097   0.36666   0.38608   0.40236
 Alpha virt. eigenvalues --    0.40366   0.41851   0.42362   0.44465   0.48649
 Alpha virt. eigenvalues --    0.48991   0.50471   0.50952   0.51746   0.52623
 Alpha virt. eigenvalues --    0.54947   0.55791   0.56609   0.56976   0.58491
 Alpha virt. eigenvalues --    0.59169   0.60291   0.63120   0.64551   0.65018
 Alpha virt. eigenvalues --    0.65485   0.66038   0.66854   0.69106   0.77850
 Alpha virt. eigenvalues --    0.79896   0.80925   0.82294   0.83513   0.85906
 Alpha virt. eigenvalues --    0.89940   0.90011   0.92328   0.94165   0.95106
 Alpha virt. eigenvalues --    0.97853   1.00751   1.03496   1.03819   1.04891
 Alpha virt. eigenvalues --    1.05047   1.05627   1.16840   1.17903   1.20870
 Alpha virt. eigenvalues --    1.21453   1.22793   1.24975   1.33751   1.35392
 Alpha virt. eigenvalues --    1.35581   1.37598   1.37729   1.38280   1.40558
 Alpha virt. eigenvalues --    1.43762   1.45032   1.48598   1.56400   1.56550
 Alpha virt. eigenvalues --    1.57628   1.62280   1.62345   1.62666   1.67015
 Alpha virt. eigenvalues --    1.68311   1.69756   1.72229   1.73163   1.80423
 Alpha virt. eigenvalues --    1.81911   1.82569   1.83419   1.87586   1.88420
 Alpha virt. eigenvalues --    1.92622   1.92632   1.99450   1.99966   2.01458
 Alpha virt. eigenvalues --    2.09065   2.09591   2.12053   2.21070   2.22372
 Alpha virt. eigenvalues --    2.22650   2.24009   2.29159   2.29693   2.34341
 Alpha virt. eigenvalues --    2.37799   2.41706   2.41894   2.44310   2.52027
 Alpha virt. eigenvalues --    2.56366   2.59737   2.67476   2.68878   2.71334
 Alpha virt. eigenvalues --    2.71996   2.75402   2.75788   2.76049   2.82345
 Alpha virt. eigenvalues --    2.83154   2.83566   2.84290   2.85872   2.86000
 Alpha virt. eigenvalues --    2.91781   2.92119   2.94979   2.95668   2.96962
 Alpha virt. eigenvalues --    2.98785   2.99657   3.03080   3.04295   3.04974
 Alpha virt. eigenvalues --    3.06124   3.09410   3.16921   3.20469   3.20960
 Alpha virt. eigenvalues --    3.22063   3.27689   3.29111   3.30229   3.30906
 Alpha virt. eigenvalues --    3.31557   3.34852   3.37297   3.37583   3.40040
 Alpha virt. eigenvalues --    3.41286   3.41445   3.43485   3.46115   3.48251
 Alpha virt. eigenvalues --    3.52363   3.55338   3.58209   3.59536   3.60546
 Alpha virt. eigenvalues --    3.64162   3.64759   3.66793   3.66950   3.67639
 Alpha virt. eigenvalues --    3.71733   3.76384   3.83696   3.87786   3.95183
 Alpha virt. eigenvalues --    3.96131   3.97673   3.97908   4.07238   4.15929
 Alpha virt. eigenvalues --    4.17459   4.21245   4.21524   4.21672   4.28600
 Alpha virt. eigenvalues --    4.29434   4.33860   4.37953   4.40071   4.40871
 Alpha virt. eigenvalues --    4.42755   4.44601   4.44879   4.69709   4.72488
 Alpha virt. eigenvalues --    4.78521   4.79525   4.84803   4.85978   4.98861
 Alpha virt. eigenvalues --    4.99460   5.04756   5.25706   5.25925   5.35376
 Alpha virt. eigenvalues --    5.43806   5.44806   5.47265   5.52446   5.77412
 Alpha virt. eigenvalues --    5.77475   5.94978   6.26307   6.55925   6.60736
 Alpha virt. eigenvalues --    6.80301   6.81026   7.03305   7.26476   7.27672
 Alpha virt. eigenvalues --   22.16466  22.68628  22.73729  22.82371  22.98010
 Alpha virt. eigenvalues --   23.49286  44.12486
          Condensed to atoms (all electrons):
               1          2          3          4          5          6
     1  C    5.313849   0.194263   0.198539  -0.252185   0.198539   0.194263
     2  C    0.194263   5.521351  -0.190878   0.385570  -0.296901   0.221983
     3  C    0.198539  -0.190878   6.385368  -0.222078   0.179804  -0.296901
     4  C   -0.252185   0.385570  -0.222078   5.034212  -0.222078   0.385570
     5  C    0.198539  -0.296901   0.179804  -0.222078   6.385368  -0.190878
     6  C    0.194263   0.221983  -0.296901   0.385570  -0.190878   5.521351
     7  H    0.430857  -0.074110   0.014770  -0.004619   0.014770  -0.074110
     8  H   -0.074206   0.393694  -0.037571   0.004910  -0.006708   0.015856
     9  H    0.026632  -0.106999   0.367607  -0.064418   0.054466  -0.015968
    10  H    0.026632  -0.015968   0.054466  -0.064418   0.367607  -0.106999
    11  H   -0.074206   0.015856  -0.006708   0.004910  -0.037571   0.393694
    12  O   -0.010304   0.039435  -0.226576   0.802308  -0.226576   0.039435
               7          8          9         10         11         12
     1  C    0.430857  -0.074206   0.026632   0.026632  -0.074206  -0.010304
     2  C   -0.074110   0.393694  -0.106999  -0.015968   0.015856   0.039435
     3  C    0.014770  -0.037571   0.367607   0.054466  -0.006708  -0.226576
     4  C   -0.004619   0.004910  -0.064418  -0.064418   0.004910   0.802308
     5  C    0.014770  -0.006708   0.054466   0.367607  -0.037571  -0.226576
     6  C   -0.074110   0.015856  -0.015968  -0.106999   0.393694   0.039435
     7  H    0.687802  -0.010794  -0.000395  -0.000395  -0.010794  -0.000008
     8  H   -0.010794   0.708241  -0.021661   0.000365  -0.001208  -0.000476
     9  H   -0.000395  -0.021661   0.727055  -0.001503   0.000365   0.019013
    10  H   -0.000395   0.000365  -0.001503   0.727055  -0.021661   0.019013
    11  H   -0.010794  -0.001208   0.000365  -0.021661   0.708241  -0.000476
    12  O   -0.000008  -0.000476   0.019013   0.019013  -0.000476   8.088329
 Mulliken charges:
               1
     1  C   -0.172673
     2  C   -0.087297
     3  C   -0.219842
     4  C    0.212316
     5  C   -0.219842
     6  C   -0.087297
     7  H    0.027026
     8  H    0.029558
     9  H    0.015805
    10  H    0.015805
    11  H    0.029558
    12  O   -0.543118
 Sum of Mulliken charges =  -1.00000
 Mulliken charges with hydrogens summed into heavy atoms:
               1
     1  C   -0.145647
     2  C   -0.057739
     3  C   -0.204037
     4  C    0.212316
     5  C   -0.204037
     6  C   -0.057739
    12  O   -0.543118
 Electronic spatial extent (au):  <R**2>=            669.2029
 Charge=             -1.0000 electrons
 Dipole moment (field-independent basis, Debye):
    X=             -0.0000    Y=             -4.2658    Z=             -0.0000  Tot=              4.2658
 Quadrupole moment (field-independent basis, Debye-Ang):
   XX=            -45.9842   YY=            -64.0511   ZZ=            -47.7185
   XY=             -0.0000   XZ=              0.0000   YZ=              0.0000
 Traceless Quadrupole moment (field-independent basis, Debye-Ang):
   XX=              6.6004   YY=            -11.4666   ZZ=              4.8661
   XY=             -0.0000   XZ=              0.0000   YZ=              0.0000
 Octapole moment (field-independent basis, Debye-Ang**2):
  XXX=              0.0000  YYY=            -30.0519  ZZZ=              0.0000  XYY=             -0.0000
  XXY=              3.0189  XXZ=              0.0000  XZZ=             -0.0000  YZZ=              6.2816
  YYZ=              0.0000  XYZ=             -0.0000
 Hexadecapole moment (field-independent basis, Debye-Ang**3):
 XXXX=           -335.5226 YYYY=           -682.7969 ZZZZ=            -59.3189 XXXY=             -0.0000
 XXXZ=              0.0000 YYYX=             -0.0000 YYYZ=              0.0000 ZZZX=              0.0000
 ZZZY=              0.0000 XXYY=           -151.1671 XXZZ=            -72.9969 YYZZ=           -111.8606
 XXYZ=             -0.0000 YYXZ=              0.0000 ZZXY=             -0.0000
 N-N= 2.599094078383D+02 E-N=-1.245532922376D+03  KE= 3.055479149712D+02
 No NMR shielding tensors so no spin-rotation constants.
 Leave Link  601 at Tue Jan 14 14:04:43 2025, MaxMem=   104857600 cpu:               0.1 elap:               0.1
 (Enter /sw/cluster/pub/apps//g16/l9999.exe)
 1\1\GINC-N02\SP\RB3LYP\def2TZVP\C6H5O1(1-)\UNKNOWN\14-Jan-2025\0\\#P B
 3LYP/def2tzvp nosymm Density=Current\\Single-Point\\-1,1\C,0,0.,-1.823
 38182,0.\C,0,1.19678129,-1.09762593,0.\C,0,1.20911977,0.28612463,0.\C,
 0,0.,1.07729702,0.\C,0,-1.20911977,0.28612463,0.\C,0,-1.19678129,-1.09
 762593,0.\H,0,0.,-2.90742241,0.\H,0,2.14385394,-1.63452482,0.\H,0,2.14
 975268,0.82930188,0.\H,0,-2.14975268,0.82930188,0.\H,0,-2.14385394,-1.
 63452482,0.\O,0,0.,2.34154909,0.\\Version=ES64L-G16RevA.03\HF=-307.024
 0005\RMSD=1.254e-09\Dipole=0.,-1.6783115,0.\Quadrupole=4.9072504,-8.52
 50998,3.6178494,0.,0.,0.\PG=C02V [C2(H1C1C1O1),SGV(C4H4)]\\@


 "TIGER, TIGER BURNING BRIGHT
 IN THE FOREST OF THE NIGHT.
 WHAT IMMORTAL HAND OR EYE
 CAN FRAME THY FEARFUL SYMMETRYE?"
                     - WILLIAM BLAKE
 Job cpu time:       0 days  0 hours  1 minutes 28.5 seconds.
 Elapsed time:       0 days  0 hours  1 minutes 28.7 seconds.
 File lengths (MBytes):  RWF=     38 Int=      0 D2E=      0 Chk=      5 Scr=      1
 Normal termination of Gaussian 16 at Tue Jan 14 14:04:43 2025.
